{"ref": {"full": "Araujo, J. M. M.; Pereiro, A. B.; Alves, F.; Marrucho, I. M.; Rebelo, L. P. N. (2013) J. Chem. Thermodyn. 57, 1-8.", "title": "Nucleic acid bases in 1-alkyl-3-methylimidazolium acetate ionic liquids:  A thermophysical and ionic conductivity analysis"}, "constr": [], "phases": ["Liquid"], "title": "Refraction, surface tension, and speed of sound: Refractive index (Na D-line)", "components": [{"mw": "170.21", "idout": "AAgmaR", "formula": "C<SUB>8</SUB>H<SUB>14</SUB>N<SUB>2</SUB>O<SUB>2</SUB>", "name": "1-ethyl-3-methylimidazolium acetate", "sample": [["Source:", "commercial source"], ["Initial purification:", "stated by supplier"], ["Initial purity:", "95 mass %"], ["Final purification:", "Karl Fischer titration;NMR (proton)"], ["Final purity:", "0.15 water mass %;99.1 mass %(dried by vacuum heating)"]]}], "dhead": [["Temperature, K", null], ["Pressure, kPa", null], ["Refractive index (Na D-line)", "Liquid"]], "footer": "", "data": [[["283.15"], ["101.325"], ["1.50423", "0.00036"]], [["288.15"], ["101.325"], ["1.50283", "0.00036"]], [["293.15"], ["101.325"], ["1.50144", "0.00036"]], [["298.15"], ["101.325"], ["1.50001", "0.00036"]], [["303.15"], ["101.325"], ["1.49861", "0.00036"]], [["308.15"], ["101.325"], ["1.49718", "0.00036"]], [["313.15"], ["101.325"], ["1.49577", "0.00036"]], [["318.15"], ["101.325"], ["1.49436", "0.00036"]], [["323.15"], ["101.325"], ["1.49295", "0.00036"]], [["328.15"], ["101.325"], ["1.49154", "0.00036"]], [["333.15"], ["101.325"], ["1.49015", "0.00036"]], [["338.15"], ["101.325"], ["1.48876", "0.00036"]], [["343.15"], ["101.325"], ["1.48734", "0.00036"]]], "solvent": null, "expmeth": "Standard Abbe refractometry"}