{"constr": [], "ref": {"title": "New tetrapropylammonium bromide-based deep eutectic solvents: Synthesis and characterizations", "full": "Jibril, B.; Mjalli, F.; Naser, J.; Gano, Z. (2014) J. Mol. Liq. 199, 462-469."}, "phases": ["Liquid"], "components": [{"sample": [["Source:", "commercial source"], ["Purification:", "stated by supplier"], ["Purity:", "98 mass %"]], "mw": "62.07", "idout": "AALwIY", "formula": "C<SUB>2</SUB>H<SUB>6</SUB>O<SUB>2</SUB>", "name": "1,2-ethanediol"}, {"sample": [["Source:", "commercial source"], ["Purification:", "stated by supplier"], ["Purity:", "98 mass %"]], "formula": "C<SUB>12</SUB>H<SUB>28</SUB>BrN", "name": "tetrapropylammonium bromide", "mw": "266.27", "idout": "AAzKlv"}], "title": "Refraction, surface tension, and speed of sound: Refractive index (Na D-line)", "dhead": [["Mole ratio to solvent: tetrapropylammonium bromide", "Liquid"], ["Temperature, K", null], ["Pressure, kPa", null], ["Refractive index (Na D-line)", "Liquid"]], "solvent": "1,2-ethanediol", "data": [[["0.2"], ["293.2"], ["100"], ["1.4652", "0.004"]], [["0.2"], ["303.6"], ["100"], ["1.462", "0.004"]], [["0.2"], ["313.5"], ["100"], ["1.4588", "0.004"]], [["0.2"], ["323.1"], ["100"], ["1.4559", "0.004"]], [["0.2"], ["333"], ["100"], ["1.4527", "0.004"]], [["0.2"], ["343.4"], ["100"], ["1.4497", "0.004"]], [["0.2"], ["353.6"], ["100"], ["1.4463", "0.004"]], [["0.25"], ["293.4"], ["100"], ["1.4697", "0.004"]], [["0.25"], ["303.4"], ["100"], ["1.4668", "0.004"]], [["0.25"], ["313.3"], ["100"], ["1.4639", "0.004"]], [["0.25"], ["323.3"], ["100"], ["1.461", "0.004"]], [["0.25"], ["333.5"], ["100"], ["1.4576", "0.004"]], [["0.25"], ["343.4"], ["100"], ["1.4546", "0.004"]], [["0.25"], ["353.6"], ["100"], ["1.4517", "0.004"]], [["0.3333"], ["293.5"], ["100"], ["1.4762", "0.004"]], [["0.3333"], ["303.2"], ["100"], ["1.4731", "0.004"]], [["0.3333"], ["313.4"], ["100"], ["1.4701", "0.004"]], [["0.3333"], ["323.1"], ["100"], ["1.467", "0.004"]], [["0.3333"], ["333.3"], ["100"], ["1.464", "0.004"]], [["0.3333"], ["343.2"], ["100"], ["1.4608", "0.004"]], [["0.3333"], ["353.4"], ["100"], ["1.4576", "0.004"]]], "footer": "", "expmeth": "Standard Abbe refractometry"}