{"ref": {"title": "Effect of the temperature on the physical properties of pure 1-propyl-3-methylimidazolium bis(trifluoromethylsulfonyl)imide and characterization of its binary mixtures with alcohols", "full": "Gomez, E.; Calvar, N.; Macedo, E. A.; Dominguez, A. (2012) J. Chem. Thermodyn. 45(1), 9-15."}, "constr": [], "phases": ["Liquid"], "title": "Refraction, surface tension, and speed of sound: Refractive index (Na D-line)", "components": [{"formula": "C<SUB>2</SUB>H<SUB>6</SUB>O", "name": "ethanol", "mw": "46.07", "idout": "AAIsrh", "sample": [["Source:", "commercial source"], ["Purification:", "stated by supplier"], ["Purity:", "99.9 mass %"], ["Purity analysis:", "de-gassed by boiling or ultrasonically;molecular sieve treatment"]]}, {"mw": "405.33", "idout": "ABZxGx", "formula": "C<SUB>9</SUB>H<SUB>13</SUB>F<SUB>6</SUB>N<SUB>3</SUB>O<SUB>4</SUB>S<SUB>2</SUB>", "name": "1-methyl-3-propylimidazolium bis[(trifluoromethyl)sulfonyl]imide", "sample": [["Source:", "commercial source"], ["Initial purification:", "stated by supplier"], ["Initial purity:", "99 mass %"], ["Final purification:", "Karl Fischer titration;ion chromatography"], ["Final purity:", "0.00005 water mass %;0.000053 halide impurity mass %(dried by vacuum heating)"]]}], "dhead": [["Mole fraction of ethanol", "Liquid"], ["Temperature, K", null], ["Pressure, kPa", null], ["Refractive index (Na D-line)", "Liquid"]], "footer": "", "data": [[["0"], ["298.15"], ["101"], ["1.42525", "0.0007"]], [["0.053"], ["298.15"], ["101"], ["1.42443", "0.0007"]], [["0.099"], ["298.15"], ["101"], ["1.42378", "0.0007"]], [["0.1914"], ["298.15"], ["101"], ["1.42214", "0.0007"]], [["0.2948"], ["298.15"], ["101"], ["1.42008", "0.00069"]], [["0.3909"], ["298.15"], ["101"], ["1.41788", "0.00069"]], [["0.4992"], ["298.15"], ["101"], ["1.41421", "0.00068"]], [["0.5912"], ["298.15"], ["101"], ["1.41045", "0.00068"]], [["0.6978"], ["298.15"], ["101"], ["1.4045", "0.00068"]], [["0.7938"], ["298.15"], ["101"], ["1.39689", "0.00068"]], [["0.895"], ["298.15"], ["101"], ["1.38426", "0.00068"]], [["0.9431"], ["298.15"], ["101"], ["1.37524", "0.00068"]], [["1"], ["298.15"], ["101"], ["1.35929", "0.00068"]]], "solvent": null, "expmeth": "Standard Abbe refractometry"}