{"title": "Refraction, surface tension, and speed of sound: Refractive index (Na D-line)", "components": [{"formula": "C<SUB>2</SUB>H<SUB>6</SUB>O", "name": "ethanol", "idout": "AAIsrh", "mw": "46.07", "sample": [["Source:", "commercial source"], ["Purification:", "stated by supplier"], ["Purity:", "99.9 mol %"]]}, {"mw": "86.18", "idout": "AAQdzy", "name": "hexane", "formula": "C<SUB>6</SUB>H<SUB>14</SUB>", "sample": [["Source:", "commercial source"], ["Purification:", "stated by supplier"], ["Purity:", "99 mol %"]]}, {"sample": [["Source:", "commercial source"], ["Initial purification:", "stated by supplier"], ["Initial purity:", "97 mol %"], ["Final purification:", "not known"], ["Final purity:", "0.135 water mass %(dried by vacuum heating)"]], "mw": "233.32", "idout": "AAstlh", "name": "1-hexyl-3-methylimidazolium dicyanamide", "formula": "C<SUB>12</SUB>H<SUB>19</SUB>N<SUB>5</SUB>"}], "dhead": [["Weight fraction of hexane", "Liquid"], ["Weight fraction of ethanol", "Liquid"], ["Temperature, K", null], ["Pressure, kPa", null], ["Refractive index (Na D-line)", "Liquid"]], "footer": "", "data": [[["0"], ["0"], ["313.15"], ["101"], ["1.49937", "0.00069"]], [["0"], ["0.009"], ["313.15"], ["101"], ["1.4978", "0.00068"]], [["0"], ["0.044"], ["313.15"], ["101"], ["1.4919", "0.00066"]], [["0"], ["0.074"], ["313.15"], ["101"], ["1.48696", "0.00065"]], [["0"], ["0.105"], ["313.15"], ["101"], ["1.48178", "0.00063"]], [["0"], ["0.159"], ["313.15"], ["101"], ["1.47307", "0.00061"]], [["0"], ["0.227"], ["313.15"], ["101"], ["1.46247", "0.00058"]], [["0"], ["0.315"], ["313.15"], ["101"], ["1.44917", "0.00054"]], [["0"], ["0.436"], ["313.15"], ["101"], ["1.43182", "0.00048"]], [["0"], ["0.635"], ["313.15"], ["101"], ["1.40428", "0.00041"]], [["0"], ["0.778"], ["313.15"], ["101"], ["1.38418", "0.00037"]], [["0"], ["1"], ["313.15"], ["101"], ["1.35309", "0.00033"]], [["0.016"], ["0.101"], ["313.15"], ["101"], ["1.48074", "0.00063"]], [["0.016"], ["0.195"], ["313.15"], ["101"], ["1.46545", "0.00059"]], [["0.02"], ["0.284"], ["313.15"], ["101"], ["1.45074", "0.00054"]], [["0.02"], ["0.398"], ["313.15"], ["101"], ["1.43372", "0.00049"]], [["0.033"], ["0.191"], ["313.15"], ["101"], ["1.46373", "0.00058"]], [["0.036"], ["0.391"], ["313.15"], ["101"], ["1.43219", "0.00049"]], [["0.041"], ["0.278"], ["313.15"], ["101"], ["1.44922", "0.00054"]], [["0.051"], ["0.761"], ["313.15"], ["101"], ["1.37848", "0.00036"]], [["0.052"], ["0.661"], ["313.15"], ["101"], ["1.39189", "0.00039"]], [["0.053"], ["0.481"], ["313.15"], ["101"], ["1.41743", "0.00045"]], [["0.054"], ["0.566"], ["313.15"], ["101"], ["1.40456", "0.00042"]], [["0.063"], ["0.38"], ["313.15"], ["101"], ["1.43054", "0.00049"]], [["0.1"], ["0.852"], ["313.15"], ["101"], ["1.36012", "0.00034"]], [["0.104"], ["0.802"], ["313.15"], ["101"], ["1.36629", "0.00035"]], [["0.106"], ["0.717"], ["313.15"], ["101"], ["1.37726", "0.00036"]], [["0.107"], ["0.623"], ["313.15"], ["101"], ["1.38989", "0.00039"]], [["0.108"], ["0.453"], ["313.15"], ["101"], ["1.41353", "0.00045"]], [["0.109"], ["0.534"], ["313.15"], ["101"], ["1.40172", "0.00042"]], [["0.15"], ["0.432"], ["313.15"], ["101"], ["1.41238", "0.00045"]], [["0.163"], ["0.501"], ["313.15"], ["101"], ["1.39912", "0.00042"]], [["0.203"], ["0.755"], ["313.15"], ["101"], ["1.36013", "0.00034"]], [["0.206"], ["0.711"], ["313.15"], ["101"], ["1.3656", "0.00035"]], [["0.213"], ["0.631"], ["313.15"], ["101"], ["1.37675", "0.00037"]], [["0.216"], ["0.547"], ["313.15"], ["101"], ["1.38762", "0.00039"]], [["0.265"], ["0.513"], ["313.15"], ["101"], ["1.38561", "0.00039"]], [["0.296"], ["0.667"], ["313.15"], ["101"], ["1.36021", "0.00035"]], [["0.307"], ["0.555"], ["313.15"], ["101"], ["1.3733", "0.00037"]], [["0.315"], ["0.613"], ["313.15"], ["101"], ["1.36504", "0.00036"]], [["0.405"], ["0.563"], ["313.15"], ["101"], ["1.36041", "0.00036"]], [["0.414"], ["0.47"], ["313.15"], ["101"], ["1.37141", "0.00038"]], [["0.418"], ["0.521"], ["313.15"], ["101"], ["1.36437", "0.00037"]], [["0.507"], ["0.467"], ["313.15"], ["101"], ["1.36066", "0.00037"]], [["0.517"], ["0.387"], ["313.15"], ["101"], ["1.36971", "0.00038"]], [["0.518"], ["0.431"], ["313.15"], ["101"], ["1.36391", "0.00037"]], [["0.603"], ["0.375"], ["313.15"], ["101"], ["1.36097", "0.00037"]], [["0.616"], ["0.343"], ["313.15"], ["101"], ["1.36359", "0.00037"]], [["0.703"], ["0.281"], ["313.15"], ["101"], ["1.36133", "0.00037"]], [["0.714"], ["0.256"], ["313.15"], ["101"], ["1.3633", "0.00037"]], [["0.75"], ["0.236"], ["313.15"], ["101"], ["1.36157", "0.00037"]]], "solvent": null, "expmeth": "Standard Abbe refractometry", "constr": [], "ref": {"title": "Ionic liquids as solvents to separate the azeotropic mixture hexane/ethanol", "full": "Corderi, S.; Gonzalez, B.; Calvar, N.; Gomez, E. (2013) Fluid Phase Equilib. 337, 11-17."}, "phases": ["Liquid"]}