{"constr": [], "ref": {"title": "Measurements of the liquid liquid phase equilibria of binary solutions of 1-methyl-3-octylimidazolium tetrafluoroborate with 1-heptanol or 2-pentanol", "full": "Zhang, X.; Cui, Z.; Yin, T.; Zheng, P.; Zhao, J. (2015) Fluid Phase Equilib. 394, 156-164."}, "phases": ["Liquid mixture 2", "Liquid mixture 1"], "title": "Refraction, surface tension, and speed of sound: Refractive index", "components": [{"idout": "AAWSDQ", "mw": "116.20", "formula": "C<SUB>7</SUB>H<SUB>16</SUB>O", "name": "heptan-1-ol", "sample": [["Source:", "commercial source"], ["Purification:", "stated by supplier"], ["Purity:", "99 mass %"], ["Purity analysis:", "molecular sieve treatment"]]}, {"sample": [["Source:", "commercial source"], ["Initial purification:", "stated by supplier"], ["Initial purity:", "99 mass %"], ["Final purification:", "Karl Fischer titration"], ["Final purity:", "0.0158 water mass %(dried in a desiccator;dried by vacuum heating)"]], "formula": "C<SUB>12</SUB>H<SUB>23</SUB>BF<SUB>4</SUB>N<SUB>2</SUB>", "name": "1-methyl-3-octylimidazolium tetrafluoroborate", "mw": "282.13", "idout": "ABCNhW"}], "dhead": [["Temperature, K", null], ["Mole fraction of 1-methyl-3-octylimidazolium tetrafluoroborate", "Liquid mixture 2"], ["Wavelength, A", "Liquid mixture 2"], ["Refractive index", "Liquid mixture 2"]], "footer": "", "data": [[["298.87"], ["0.382"], ["623.8"], ["1.4264", "0.0003"]], [["299.671"], ["0.371"], ["623.8"], ["1.426", "0.0003"]], [["300.453"], ["0.359"], ["623.8"], ["1.4256", "0.0003"]], [["301.203"], ["0.347"], ["623.8"], ["1.4252", "0.0003"]], [["301.926"], ["0.335"], ["623.8"], ["1.4248", "0.0003"]], [["302.629"], ["0.33"], ["623.8"], ["1.4245", "0.0003"]], [["303.307"], ["0.317"], ["623.8"], ["1.4241", "0.0003"]], [["303.937"], ["0.302"], ["623.8"], ["1.4237", "0.0003"]], [["304.502"], ["0.294"], ["623.8"], ["1.4234", "0.0003"]], [["304.995"], ["0.284"], ["623.8"], ["1.4231", "0.0003"]], [["305.414"], ["0.272"], ["623.8"], ["1.4228", "0.0003"]], [["305.779"], ["0.259"], ["623.8"], ["1.4225", "0.0003"]], [["306.087"], ["0.253"], ["623.8"], ["1.4223", "0.0003"]], [["306.337"], ["0.244"], ["623.8"], ["1.4221", "0.0003"]], [["306.538"], ["0.242"], ["623.8"], ["1.422", "0.0003"]], [["306.704"], ["0.232"], ["623.8"], ["1.4218", "0.0003"]], [["306.833"], ["0.228"], ["623.8"], ["1.4217", "0.0003"]], [["306.934"], ["0.224"], ["623.8"], ["1.4216", "0.0003"]], [["307.023"], ["0.219"], ["623.8"], ["1.4215", "0.0003"]], [["307.099"], ["0.221"], ["623.8"], ["1.4215", "0.0003"]], [["307.164"], ["0.215"], ["623.8"], ["1.4214", "0.0003"]], [["307.215"], ["0.217"], ["623.8"], ["1.4214", "0.0003"]], [["307.261"], ["0.211"], ["623.8"], ["1.4213", "0.0003"]], [["307.3"], ["0.204"], ["623.8"], ["1.4212", "0.0003"]], [["307.333"], ["0.198"], ["623.8"], ["1.4211", "0.0003"]], [["307.364"], ["0.199"], ["623.8"], ["1.4211", "0.0003"]], [["307.39"], ["0.193"], ["623.8"], ["1.421", "0.0003"]], [["307.414"], ["0.186"], ["623.8"], ["1.4209", "0.0003"]], [["307.435"], ["0.187"], ["623.8"], ["1.4209", "0.0003"]], [["307.452"], ["0.18"], ["623.8"], ["1.4208", "0.0003"]], [["307.468"], ["0.181"], ["623.8"], ["1.4208", "0.0003"]], [["307.48"], ["0.174"], ["623.8"], ["1.4207", "0.0003"]], [["307.49"], ["0.175"], ["623.8"], ["1.4207", "0.0003"]], [["307.499"], ["0.168"], ["623.8"], ["1.4206", "0.0003"]], [["307.508"], ["0.168"], ["623.8"], ["1.4206", "0.0003"]], [["307.516"], ["0.162"], ["623.8"], ["1.4205", "0.0005"]], [["307.521"], ["0.162"], ["623.8"], ["1.4205", "0.0003"]], [["307.525"], ["0.155"], ["623.8"], ["1.4204", "0.0003"]], [["307.528"], ["0.155"], ["623.8"], ["1.4204", "0.0003"]], [["307.53"], ["0.155"], ["623.8"], ["1.4204", "0.0003"]], [["307.534"], ["0.149"], ["623.8"], ["1.4203", "0.0003"]]], "solvent": null, "expmeth": "Minimum deviation"}