{"solvent": null, "data": [[["298.15"], ["0"], ["101"], ["1.43", "0.0004"]], [["298.15"], ["0.1249"], ["101"], ["1.4239", "0.0004"]], [["298.15"], ["0.2084"], ["101"], ["1.4206", "0.0004"]], [["298.15"], ["0.3046"], ["101"], ["1.4176", "0.0004"]], [["298.15"], ["0.4124"], ["101"], ["1.4151", "0.0004"]], [["298.15"], ["0.4763"], ["101"], ["1.414", "0.0004"]], [["298.15"], ["0.5565"], ["101"], ["1.413", "0.0004"]], [["298.15"], ["0.717"], ["101"], ["1.412", "0.0005"]], [["298.15"], ["0.7826"], ["101"], ["1.4118", "0.0005"]], [["298.15"], ["0.901"], ["101"], ["1.4115", "0.0005"]], [["298.15"], ["1"], ["101"], ["1.4111", "0.0005"]], [["303.15"], ["0"], ["101"], ["1.4285", "0.0004"]], [["303.15"], ["0.1249"], ["101"], ["1.4224", "0.0004"]], [["303.15"], ["0.2084"], ["101"], ["1.4192", "0.0004"]], [["303.15"], ["0.3046"], ["101"], ["1.4163", "0.0004"]], [["303.15"], ["0.4124"], ["101"], ["1.4138", "0.0004"]], [["303.15"], ["0.4763"], ["101"], ["1.4127", "0.0004"]], [["303.15"], ["0.5565"], ["101"], ["1.4117", "0.0004"]], [["303.15"], ["0.717"], ["101"], ["1.4105", "0.0005"]], [["303.15"], ["0.7826"], ["101"], ["1.4103", "0.0005"]], [["303.15"], ["0.901"], ["101"], ["1.4101", "0.0005"]], [["303.15"], ["1"], ["101"], ["1.41", "0.0005"]], [["313.15"], ["0"], ["101"], ["1.4258", "0.0004"]], [["313.15"], ["0.1249"], ["101"], ["1.4199", "0.0004"]], [["313.15"], ["0.2084"], ["101"], ["1.4167", "0.0004"]], [["313.15"], ["0.3046"], ["101"], ["1.4136", "0.0004"]], [["313.15"], ["0.4124"], ["101"], ["1.411", "0.0004"]], [["313.15"], ["0.4763"], ["101"], ["1.4099", "0.0004"]], [["313.15"], ["0.5565"], ["101"], ["1.4089", "0.0004"]], [["313.15"], ["0.717"], ["101"], ["1.4079", "0.0005"]], [["313.15"], ["0.7826"], ["101"], ["1.4077", "0.0005"]], [["313.15"], ["0.901"], ["101"], ["1.4076", "0.0005"]], [["313.15"], ["1"], ["101"], ["1.4073", "0.0005"]], [["323.15"], ["0"], ["101"], ["1.4229", "0.0004"]], [["323.15"], ["0.1249"], ["101"], ["1.4174", "0.0004"]], [["323.15"], ["0.2084"], ["101"], ["1.4142", "0.0004"]], [["323.15"], ["0.3046"], ["101"], ["1.4111", "0.0004"]], [["323.15"], ["0.4124"], ["101"], ["1.4085", "0.0004"]], [["323.15"], ["0.4763"], ["101"], ["1.4074", "0.0004"]], [["323.15"], ["0.5565"], ["101"], ["1.4064", "0.0004"]], [["323.15"], ["0.717"], ["101"], ["1.4054", "0.0005"]], [["323.15"], ["0.7826"], ["101"], ["1.4054", "0.0005"]], [["323.15"], ["0.901"], ["101"], ["1.4053", "0.0005"]], [["323.15"], ["1"], ["101"], ["1.4051", "0.0005"]]], "footer": "", "expmeth": "Standard Abbe refractometry", "components": [{"idout": "AALwIY", "mw": "62.07", "name": "1,2-ethanediol", "formula": "C<SUB>2</SUB>H<SUB>6</SUB>O<SUB>2</SUB>", "sample": [["Source:", "commercial source"], ["Purification:", "stated by supplier"], ["Purity:", "99.5 mass %"], ["Purity analysis:", "molecular sieve treatment"]]}, {"mw": "197.97", "idout": "AAmDom", "name": "1-ethyl-3-methylimidazolium tetrafluoroborate", "formula": "C<SUB>6</SUB>H<SUB>11</SUB>BF<SUB>4</SUB>N<SUB>2</SUB>", "sample": [["Source:", "commercial source"], ["Purification:", "stated by supplier"], ["Purity:", "98 mass %"], ["Purity analysis:", "none used"]]}], "title": "Refraction, surface tension, and speed of sound: Refractive index (Na D-line)", "dhead": [["Temperature, K", null], ["Mole fraction of 1-ethyl-3-methylimidazolium tetrafluoroborate", "Liquid"], ["Pressure, kPa", null], ["Refractive index (Na D-line)", "Liquid"]], "phases": ["Liquid"], "constr": [], "ref": {"full": "Ciocirlan, O.; Croitoru, O.; Iulian, O. (2014) J. Chem. Eng. Data 59(4), 1165-1174.", "title": "Density and Refractive Index of Binary Mixtures of Two 1-Alkyl-3-methylimidazolium Ionic Liquids with 1,4-Dioxane and Ethylene Glycol"}}