{"components": [{"formula": "C<SUB>8</SUB>H<SUB>15</SUB>F<SUB>6</SUB>NO<SUB>4</SUB>S<SUB>3</SUB>", "name": "triethylsulfonium bis((trifluoromethyl)sulfonyl)imide", "mw": "399.38", "idout": "ABYpAz", "sample": [["Source:", "commercial source"], ["Initial purification:", "stated by supplier"], ["Initial purity:", "99 % (basis not specified)"], ["Final purification:", "Karl Fischer titration"], ["Final purity:", "0.0020 water mass %(dried by vacuum heating)"]]}], "title": "Refraction, surface tension, and speed of sound: Refractive index (Na D-line)", "dhead": [["Temperature, K", null], ["Pressure, kPa", null], ["Refractive index (Na D-line)", "Liquid"]], "solvent": null, "data": [[["283.15"], ["101.325"], ["1.4308", "0.0029"]], [["288.15"], ["101.325"], ["1.4293", "0.0029"]], [["293.15"], ["101.325"], ["1.4279", "0.0029"]], [["298.15"], ["101.325"], ["1.4264", "0.0029"]], [["303.15"], ["101.325"], ["1.4249", "0.0029"]], [["308.15"], ["101.325"], ["1.4234", "0.0029"]], [["313.15"], ["101.325"], ["1.4219", "0.0029"]], [["318.15"], ["101.325"], ["1.4204", "0.0029"]], [["323.15"], ["101.325"], ["1.419", "0.0029"]], [["328.15"], ["101.325"], ["1.4175", "0.0029"]], [["333.15"], ["101.325"], ["1.4161", "0.0029"]], [["338.15"], ["101.325"], ["1.4148", "0.0029"]], [["343.15"], ["101.325"], ["1.4134", "0.0028"]]], "footer": "", "expmeth": "Standard Abbe refractometry", "constr": [], "ref": {"title": "Densities, Refractive Indices, Viscosities, and Conductivities of Non-Imidazolium Ionic Liquids [Et3S][TFSI], [Et2MeS][TFSI], [BuPy][TFSI], [N8881][TFA], and [P14][DCA]", "full": "Nazet, A.; Sokolov, S.; Sonnleitner, T.; Friesen, S.; Buchner, R. (2017) J. Chem. Eng. Data 62(9), 2549-2561."}, "phases": ["Liquid"]}