{"components": [{"name": "methanol", "formula": "CH<SUB>4</SUB>O", "idout": "AAGIBL", "mw": "32.04", "sample": [["Source:", "commercial source"], ["Initial purification:", "estimated by the compiler"], ["Initial purity:", "99.5 % (basis not specified)"], ["Final purification:", "Karl Fischer titration"], ["Final purity:", "0.01 water mass %"]]}, {"mw": "236.29", "idout": "AAtWDT", "name": "1-ethyl-3-methylimidazolium ethyl sulfate", "formula": "C<SUB>8</SUB>H<SUB>16</SUB>N<SUB>2</SUB>O<SUB>4</SUB>S", "sample": [["Source:", "commercial source"], ["Initial purification:", "stated by supplier"], ["Initial purity:", "99 % (basis not specified)"], ["Final purification:", "Karl Fischer titration"], ["Final purity:", "0.01 water mass %"]]}], "title": "Refraction, surface tension, and speed of sound: Refractive index (Na D-line)", "dhead": [["Mole fraction of methanol", "Liquid"], ["Temperature, K", null], ["Pressure, kPa", null], ["Refractive index (Na D-line)", "Liquid"]], "solvent": null, "data": [[["0"], ["298.15"], ["101"], ["1.47908", "0.00066"]], [["0.0487"], ["298.15"], ["101"], ["1.47873", "0.00066"]], [["0.0977"], ["298.15"], ["101"], ["1.47637", "0.00066"]], [["0.1978"], ["298.15"], ["101"], ["1.47035", "0.00066"]], [["0.2989"], ["298.15"], ["101"], ["1.46618", "0.00065"]], [["0.3991"], ["298.15"], ["101"], ["1.46462", "0.00065"]], [["0.4991"], ["298.15"], ["101"], ["1.46284", "0.00065"]], [["0.5993"], ["298.15"], ["101"], ["1.45585", "0.00065"]], [["0.7002"], ["298.15"], ["101"], ["1.43992", "0.00065"]], [["0.7999"], ["298.15"], ["101"], ["1.41722", "0.00064"]], [["0.9002"], ["298.15"], ["101"], ["1.39225", "0.00064"]], [["0.9502"], ["298.15"], ["101"], ["1.37316", "0.00064"]], [["1"], ["298.15"], ["101"], ["1.32668", "0.00064"]]], "footer": "", "expmeth": "Standard Abbe refractometry", "constr": [], "ref": {"title": "Isothermal Vapor-Liquid Equilibrium Data at T = 333.15 K and Excess Molar Volumes and Refractive Indices at T = 298.15 K for the Dimethyl Carbonate + Methanol and Isopropanol + Water with Ionic Liquids", "full": "Kim, H.-D.; Hwang, I.-C.; Park, S.-J. (2010) J. Chem. Eng. Data 55(7), 2474-2481."}, "phases": ["Liquid"]}