{"constr": [], "ref": {"title": "Influence of the cation partner on levulinate ionic liquids properties", "full": "Mero, A.; Guglielmero, L.; D'Andrea, F.; Pomelli, C. S.; Guazzelli, L.; Koutsoumpos, S.; Tsonos, G.; Stavrakas, I.; Moutzouris, K.; Mezzetta, A. (2022) J. Mol. Liq. 354, 118850."}, "phases": ["Liquid"], "dhead": [["Temperature, K", null], ["Pressure, kPa", null], ["Wavelength, A", "Liquid"], ["Refractive index", "Liquid"]], "components": [{"name": "1-ethyl-1-methylpyrrolidinium levulinate", "formula": "C<SUB>12</SUB>H<SUB>23</SUB>NO<SUB>3</SUB>", "idout": "AAsFoi", "mw": "229.32", "sample": [["Source:", "synthesized by the authors"], ["Purification:", "estimated by the compiler;Karl Fischer titration"], ["Purity:", "98 mass %;0.013 water mass %(dried by vacuum heating)"]]}], "title": "Refraction, surface tension, and speed of sound: Refractive index", "expmeth": "Dipping refractometry (monochromatic)", "data": [[["293"], ["100"], ["450"], ["1.498", "0.0006"]], [["293"], ["100"], ["532"], ["1.4913", "0.0006"]], [["293"], ["100"], ["633"], ["1.4866", "0.0006"]], [["293"], ["100"], ["964"], ["1.4803", "0.0006"]], [["293"], ["100"], ["1551"], ["1.478", "0.0006"]], [["353"], ["100"], ["450"], ["1.4816", "0.0006"]], [["353"], ["100"], ["532"], ["1.4752", "0.0006"]], [["353"], ["100"], ["633"], ["1.4705", "0.0006"]], [["353"], ["100"], ["964"], ["1.4645", "0.0006"]], [["353"], ["100"], ["1551"], ["1.4623", "0.0006"]], [["358.1"], ["100"], ["450"], ["1.4802", "0.0006"]], [["358.1"], ["100"], ["532"], ["1.4738", "0.0006"]], [["358.1"], ["100"], ["633"], ["1.4692", "0.0006"]], [["358.1"], ["100"], ["964"], ["1.4632", "0.0006"]], [["358.1"], ["100"], ["1551"], ["1.4609", "0.0006"]], [["363"], ["100"], ["450"], ["1.4789", "0.0006"]], [["363"], ["100"], ["532"], ["1.4724", "0.0006"]], [["363"], ["100"], ["633"], ["1.4679", "0.0006"]], [["363"], ["100"], ["964"], ["1.4619", "0.0006"]], [["363"], ["100"], ["1551"], ["1.4596", "0.0006"]], [["368.1"], ["100"], ["450"], ["1.4775", "0.0006"]], [["368.1"], ["100"], ["532"], ["1.4711", "0.0006"]], [["368.1"], ["100"], ["633"], ["1.4665", "0.0006"]], [["368.1"], ["100"], ["964"], ["1.4605", "0.0006"]], [["368.1"], ["100"], ["1551"], ["1.4583", "0.0006"]], [["373"], ["100"], ["450"], ["1.4761", "0.0006"]], [["373"], ["100"], ["532"], ["1.4697", "0.0006"]], [["373"], ["100"], ["633"], ["1.4652", "0.0006"]], [["373"], ["100"], ["964"], ["1.4592", "0.0006"]], [["373"], ["100"], ["1551"], ["1.457", "0.0006"]], [["378.15"], ["100"], ["450"], ["1.4747", "0.0006"]], [["378.15"], ["100"], ["532"], ["1.4684", "0.0006"]], [["378.15"], ["100"], ["633"], ["1.4638", "0.0006"]], [["378.15"], ["100"], ["964"], ["1.4579", "0.0006"]], [["378.15"], ["100"], ["1551"], ["1.4556", "0.0006"]], [["383.1"], ["100"], ["450"], ["1.4734", "0.0006"]], [["383.1"], ["100"], ["532"], ["1.467", "0.0006"]], [["383.1"], ["100"], ["633"], ["1.4625", "0.0006"]], [["383.1"], ["100"], ["964"], ["1.4565", "0.0006"]], [["383.1"], ["100"], ["1551"], ["1.4543", "0.0006"]], [["388.15"], ["100"], ["450"], ["1.472", "0.0006"]], [["388.15"], ["100"], ["532"], ["1.4656", "0.0006"]], [["388.15"], ["100"], ["633"], ["1.4611", "0.0006"]], [["388.15"], ["100"], ["964"], ["1.4552", "0.0006"]], [["388.15"], ["100"], ["1551"], ["1.453", "0.0006"]], [["393.1"], ["100"], ["450"], ["1.4706", "0.0006"]], [["393.1"], ["100"], ["532"], ["1.4643", "0.0006"]], [["393.1"], ["100"], ["633"], ["1.4598", "0.0006"]], [["393.1"], ["100"], ["964"], ["1.4539", "0.0006"]], [["393.1"], ["100"], ["1551"], ["1.4517", "0.0006"]], [["398.15"], ["100"], ["450"], ["1.4692", "0.0006"]], [["398.15"], ["100"], ["532"], ["1.4629", "0.0006"]], [["398.15"], ["100"], ["633"], ["1.4584", "0.0006"]], [["398.15"], ["100"], ["964"], ["1.4525", "0.0006"]], [["398.15"], ["100"], ["1551"], ["1.4503", "0.0006"]], [["403.1"], ["100"], ["450"], ["1.4678", "0.0006"]], [["403.1"], ["100"], ["532"], ["1.4616", "0.0006"]], [["403.1"], ["100"], ["633"], ["1.4571", "0.0006"]], [["403.1"], ["100"], ["964"], ["1.4512", "0.0006"]], [["403.1"], ["100"], ["1551"], ["1.449", "0.0006"]]], "solvent": null, "footer": ""}