{"components": [{"sample": [["Source:", "commercial source"], ["Initial purification:", "stated by supplier"], ["Initial purity:", "99 mass %"], ["Final purification:", "gas chromatography;Karl Fischer titration"], ["Final purity:", "99.4 mass %;0.0300 water mass %(fractional distillation)"]], "name": "2-pyrrolidinone", "formula": "C<SUB>4</SUB>H<SUB>7</SUB>NO", "mw": "85.11", "idout": "AAQTZI"}, {"mw": "226.03", "idout": "AArYBF", "formula": "C<SUB>8</SUB>H<SUB>15</SUB>BF<SUB>4</SUB>N<SUB>2</SUB>", "name": "1-butyl-3-methylimidazolium tetrafluoroborate", "sample": [["Source:", "commercial source"], ["Initial purification:", "stated by supplier"], ["Initial purity:", "99 mass %"], ["Final purification:", "Karl Fischer titration"], ["Final purity:", "0.0320 water mass %(dried by vacuum heating)"]]}], "title": "Refraction, surface tension, and speed of sound: Refractive index (Na D-line)", "dhead": [["Temperature, K", null], ["Mole fraction of 1-butyl-3-methylimidazolium tetrafluoroborate", "Liquid"], ["Pressure, kPa", null], ["Refractive index (Na D-line)", "Liquid"]], "solvent": null, "data": [[["298.15"], ["0"], ["100"], ["1.48591", "0.00086"]], [["298.15"], ["0.102"], ["100"], ["1.47414", "0.0014"]], [["298.15"], ["0.1951"], ["100"], ["1.46433", "0.0013"]], [["298.15"], ["0.3046"], ["100"], ["1.45472", "0.0012"]], [["298.15"], ["0.3886"], ["100"], ["1.4487", "0.0011"]], [["298.15"], ["0.5262"], ["100"], ["1.44033", "0.001"]], [["298.15"], ["0.6185"], ["100"], ["1.43543", "0.001"]], [["298.15"], ["0.69"], ["100"], ["1.43222", "0.00097"]], [["298.15"], ["0.7844"], ["100"], ["1.4283", "0.00095"]], [["298.15"], ["0.8861"], ["100"], ["1.42468", "0.00094"]], [["298.15"], ["1"], ["100"], ["1.42058", "0.00087"]], [["303.15"], ["0"], ["100"], ["1.48403", "0.00086"]], [["303.15"], ["0.102"], ["100"], ["1.47243", "0.0014"]], [["303.15"], ["0.1951"], ["100"], ["1.46228", "0.0013"]], [["303.15"], ["0.3046"], ["100"], ["1.45316", "0.0012"]], [["303.15"], ["0.3886"], ["100"], ["1.44722", "0.0011"]], [["303.15"], ["0.5262"], ["100"], ["1.43885", "0.001"]], [["303.15"], ["0.6185"], ["100"], ["1.43414", "0.001"]], [["303.15"], ["0.69"], ["100"], ["1.43084", "0.00097"]], [["303.15"], ["0.7844"], ["100"], ["1.42696", "0.00095"]], [["303.15"], ["0.8861"], ["100"], ["1.42338", "0.00094"]], [["303.15"], ["1"], ["100"], ["1.41913", "0.00087"]], [["308.15"], ["0"], ["100"], ["1.48218", "0.00086"]], [["308.15"], ["0.102"], ["100"], ["1.47067", "0.0014"]], [["308.15"], ["0.1951"], ["100"], ["1.461", "0.0013"]], [["308.15"], ["0.3046"], ["100"], ["1.45161", "0.0012"]], [["308.15"], ["0.3886"], ["100"], ["1.44571", "0.0011"]], [["308.15"], ["0.5262"], ["100"], ["1.43737", "0.001"]], [["308.15"], ["0.6185"], ["100"], ["1.43271", "0.00099"]], [["308.15"], ["0.69"], ["100"], ["1.42943", "0.00097"]], [["308.15"], ["0.7844"], ["100"], ["1.4256", "0.00095"]], [["308.15"], ["0.8861"], ["100"], ["1.42205", "0.00095"]], [["308.15"], ["1"], ["100"], ["1.41764", "0.00087"]], [["313.15"], ["0"], ["100"], ["1.48033", "0.00086"]], [["313.15"], ["0.102"], ["100"], ["1.46895", "0.0014"]], [["313.15"], ["0.1951"], ["100"], ["1.45929", "0.0013"]], [["313.15"], ["0.3046"], ["100"], ["1.44998", "0.0012"]], [["313.15"], ["0.3886"], ["100"], ["1.44418", "0.0011"]], [["313.15"], ["0.5262"], ["100"], ["1.43589", "0.001"]], [["313.15"], ["0.6185"], ["100"], ["1.43125", "0.00099"]], [["313.15"], ["0.69"], ["100"], ["1.42805", "0.00096"]], [["313.15"], ["0.7844"], ["100"], ["1.4242", "0.00095"]], [["313.15"], ["0.8861"], ["100"], ["1.42069", "0.00095"]], [["313.15"], ["1"], ["100"], ["1.41621", "0.00087"]], [["318.15"], ["0"], ["100"], ["1.47841", "0.00086"]], [["318.15"], ["0.102"], ["100"], ["1.46715", "0.0014"]], [["318.15"], ["0.1951"], ["100"], ["1.45813", "0.0013"]], [["318.15"], ["0.3046"], ["100"], ["1.44832", "0.0012"]], [["318.15"], ["0.3886"], ["100"], ["1.44261", "0.0011"]], [["318.15"], ["0.5262"], ["100"], ["1.43436", "0.001"]], [["318.15"], ["0.6185"], ["100"], ["1.42972", "0.00099"]], [["318.15"], ["0.69"], ["100"], ["1.42665", "0.00096"]], [["318.15"], ["0.7844"], ["100"], ["1.42286", "0.00095"]], [["318.15"], ["0.8861"], ["100"], ["1.41928", "0.00095"]], [["318.15"], ["1"], ["100"], ["1.41472", "0.00087"]], [["323.15"], ["0"], ["100"], ["1.47649", "0.00086"]], [["323.15"], ["0.102"], ["100"], ["1.46522", "0.0014"]], [["323.15"], ["0.1951"], ["100"], ["1.45533", "0.0013"]], [["323.15"], ["0.3046"], ["100"], ["1.44663", "0.0011"]], [["323.15"], ["0.3886"], ["100"], ["1.44099", "0.0011"]], [["323.15"], ["0.5262"], ["100"], ["1.43282", "0.001"]], [["323.15"], ["0.6185"], ["100"], ["1.42817", "0.00098"]], [["323.15"], ["0.69"], ["100"], ["1.42522", "0.00096"]], [["323.15"], ["0.7844"], ["100"], ["1.42148", "0.00095"]], [["323.15"], ["0.8861"], ["100"], ["1.41788", "0.00095"]], [["323.15"], ["1"], ["100"], ["1.4133", "0.00087"]]], "footer": "", "expmeth": "Standard Abbe refractometry", "ref": {"title": "Volumetric properties of 1-butyl-3-methylimidazolium tetrafluoroborate and 2-pyrrolidone from T = (298.15 to 323.15) K at atmospheric pressure", "full": "Govardhana Rao, S.; Madhu Mohan, T.; Vijaya Krishna, T.; Subba Rao, B. (2016) J. Chem. Thermodyn. 94, 127-137."}, "constr": [], "phases": ["Liquid"]}