{"components": [{"mw": "46.07", "idout": "AAIsrh", "name": "ethanol", "formula": "C<SUB>2</SUB>H<SUB>6</SUB>O", "sample": [["Source:", "commercial source"], ["Purification:", "stated by supplier"], ["Purity:", "99.9 mass %"], ["Purity analysis:", "de-gassed by boiling or ultrasonically;molecular sieve treatment"]]}, {"sample": [["Source:", "commercial source"], ["Initial purification:", "stated by supplier"], ["Initial purity:", "99 mass %"], ["Final purification:", "Karl Fischer titration"], ["Final purity:", "0.0431 water mass %(dried by vacuum heating)"]], "idout": "ABabds", "mw": "408.37", "formula": "C<SUB>10</SUB>H<SUB>18</SUB>F<SUB>6</SUB>N<SUB>2</SUB>O<SUB>4</SUB>S<SUB>2</SUB>", "name": "1-methyl-1-propylpyrrolidinium bis[(trifluoromethyl)sulfonyl]imide"}], "title": "Refraction, surface tension, and speed of sound: Refractive index (Na D-line)", "dhead": [["Temperature, K", null], ["Mole fraction of ethanol", "Liquid"], ["Pressure, kPa", null], ["Refractive index (Na D-line)", "Liquid"]], "data": [[["298.15"], ["0"], ["101"], ["1.42064", "0.00037"]], [["298.15"], ["0.016"], ["101"], ["1.42045", "0.00037"]], [["298.15"], ["0.0703"], ["101"], ["1.41973", "0.00036"]], [["298.15"], ["0.0986"], ["101"], ["1.41935", "0.00036"]], [["298.15"], ["0.2816"], ["101"], ["1.41621", "0.00034"]], [["298.15"], ["0.4082"], ["101"], ["1.41338", "0.00033"]], [["298.15"], ["0.5143"], ["101"], ["1.41021", "0.00033"]], [["298.15"], ["0.6077"], ["101"], ["1.40661", "0.00032"]], [["298.15"], ["0.7059"], ["101"], ["1.40144", "0.00032"]], [["298.15"], ["0.8034"], ["101"], ["1.39395", "0.00032"]], [["298.15"], ["0.9002"], ["101"], ["1.38228", "0.00031"]], [["298.15"], ["0.9468"], ["101"], ["1.37383", "0.00031"]], [["298.15"], ["1"], ["101"], ["1.35932", "0.00031"]], [["303.15"], ["0"], ["101"], ["1.41926", "0.00037"]], [["303.15"], ["0.016"], ["101"], ["1.41907", "0.00037"]], [["303.15"], ["0.0703"], ["101"], ["1.41834", "0.00036"]], [["303.15"], ["0.0986"], ["101"], ["1.41789", "0.00036"]], [["303.15"], ["0.2816"], ["101"], ["1.41485", "0.00034"]], [["303.15"], ["0.4082"], ["101"], ["1.412", "0.00033"]], [["303.15"], ["0.5143"], ["101"], ["1.40877", "0.00033"]], [["303.15"], ["0.6077"], ["101"], ["1.40521", "0.00032"]], [["303.15"], ["0.7059"], ["101"], ["1.39995", "0.00032"]], [["303.15"], ["0.8034"], ["101"], ["1.39236", "0.00032"]], [["303.15"], ["0.9002"], ["101"], ["1.38064", "0.00031"]], [["303.15"], ["0.9468"], ["101"], ["1.372", "0.00031"]], [["303.15"], ["1"], ["101"], ["1.35728", "0.00031"]], [["308.15"], ["0"], ["101"], ["1.41782", "0.00037"]], [["308.15"], ["0.016"], ["101"], ["1.41766", "0.00037"]], [["308.15"], ["0.0703"], ["101"], ["1.4169", "0.00036"]], [["308.15"], ["0.0986"], ["101"], ["1.41649", "0.00036"]], [["308.15"], ["0.2816"], ["101"], ["1.41339", "0.00034"]], [["308.15"], ["0.4082"], ["101"], ["1.41052", "0.00033"]], [["308.15"], ["0.5143"], ["101"], ["1.40732", "0.00033"]], [["308.15"], ["0.6077"], ["101"], ["1.40398", "0.00032"]], [["308.15"], ["0.7059"], ["101"], ["1.39878", "0.00032"]], [["308.15"], ["0.8034"], ["101"], ["1.39104", "0.00032"]], [["308.15"], ["0.9002"], ["101"], ["1.37888", "0.00031"]], [["308.15"], ["0.9468"], ["101"], ["1.37027", "0.00032"]], [["308.15"], ["1"], ["101"], ["1.35519", "0.00031"]]], "solvent": null, "footer": "", "expmeth": "Standard Abbe refractometry", "constr": [], "ref": {"full": "Gonzalez, B.; Gonzalez, E. J. (2014) J. Chem. Thermodyn. 68, 109-116.", "title": "Physical properties of the pure 1-methyl-1-propylpyrrolidinium bis(trifluoromethylsulfonyl)imide ionic liquid and its binary mixtures with alcohols"}, "phases": ["Liquid"]}