{"ref": {"full": "Anton, V.; Artigas, H.; Munoz-Embid, J.; Artal, M.; Lafuente, C. (2016) J. Chem. Thermodyn. 99, 116-123.", "title": "Thermophysical properties of two binary aqueous mixtures containing a pyridinium-based ionic liquid"}, "constr": [], "phases": ["Liquid"], "components": [{"formula": "H<SUB>2</SUB>O", "name": "water", "idout": "AADYJk", "mw": "18.02", "sample": [["Source:", "commercial source"], ["Purification:", "estimated by the compiler"], ["Purity:", "99.9 mass %"]]}, {"formula": "C<SUB>9</SUB>H<SUB>14</SUB>BF<SUB>4</SUB>N", "name": "1-butylpyridinium tetrafluoroborate", "mw": "223.02", "idout": "AAquMR", "sample": [["Source:", "commercial source"], ["Initial purification:", "stated by supplier"], ["Initial purity:", "99 mass %"], ["Final purification:", "Karl Fischer titration"], ["Final purity:", "0.0085 water mass %(dried in a desiccator;dried by vacuum heating)"]]}], "title": "Refraction, surface tension, and speed of sound: Refractive index (Na D-line)", "dhead": [["Temperature, K", null], ["Mole fraction of 1-butylpyridinium tetrafluoroborate", "Liquid"], ["Pressure, kPa", null], ["Refractive index (Na D-line)", "Liquid"]], "data": [[["293.15"], ["0"], ["99"], ["1.33297", "0.00031"]], [["293.15"], ["0.0165"], ["99"], ["1.34819", "0.00035"]], [["293.15"], ["0.0379"], ["99"], ["1.36348", "0.00033"]], [["293.15"], ["0.0863"], ["99"], ["1.38639", "0.00032"]], [["293.15"], ["0.101"], ["99"], ["1.39141", "0.00032"]], [["293.15"], ["0.134"], ["99"], ["1.40063", "0.00032"]], [["293.15"], ["0.243"], ["99"], ["1.41888", "0.00032"]], [["293.15"], ["0.289"], ["99"], ["1.42371", "0.00032"]], [["293.15"], ["0.3456"], ["99"], ["1.42826", "0.00032"]], [["293.15"], ["0.4217"], ["99"], ["1.43287", "0.00032"]], [["293.15"], ["0.5485"], ["99"], ["1.43815", "0.00033"]], [["293.15"], ["0.6029"], ["99"], ["1.43987", "0.00034"]], [["293.15"], ["0.7232"], ["99"], ["1.44283", "0.00034"]], [["293.15"], ["0.8005"], ["99"], ["1.44431", "0.00035"]], [["293.15"], ["0.8575"], ["99"], ["1.44526", "0.00036"]], [["293.15"], ["0.9315"], ["99"], ["1.44633", "0.00036"]], [["293.15"], ["1"], ["99"], ["1.44719", "0.00037"]], [["303.15"], ["0"], ["99"], ["1.33196", "0.00031"]], [["303.15"], ["0.0165"], ["99"], ["1.34644", "0.00035"]], [["303.15"], ["0.0379"], ["99"], ["1.3612", "0.00033"]], [["303.15"], ["0.0863"], ["99"], ["1.38392", "0.00032"]], [["303.15"], ["0.101"], ["99"], ["1.38881", "0.00032"]], [["303.15"], ["0.134"], ["99"], ["1.39805", "0.00032"]], [["303.15"], ["0.243"], ["99"], ["1.41639", "0.00032"]], [["303.15"], ["0.289"], ["99"], ["1.42115", "0.00032"]], [["303.15"], ["0.3456"], ["99"], ["1.42571", "0.00032"]], [["303.15"], ["0.4217"], ["99"], ["1.4303", "0.00032"]], [["303.15"], ["0.5485"], ["99"], ["1.43558", "0.00033"]], [["303.15"], ["0.6029"], ["99"], ["1.43726", "0.00034"]], [["303.15"], ["0.7232"], ["99"], ["1.44021", "0.00034"]], [["303.15"], ["0.8005"], ["99"], ["1.44168", "0.00035"]], [["303.15"], ["0.8575"], ["99"], ["1.44261", "0.00036"]], [["303.15"], ["0.9315"], ["99"], ["1.44368", "0.00036"]], [["303.15"], ["1"], ["99"], ["1.44454", "0.00037"]], [["313.15"], ["0"], ["99"], ["1.33061", "0.00031"]], [["313.15"], ["0.0165"], ["99"], ["1.34468", "0.00034"]], [["313.15"], ["0.0379"], ["99"], ["1.35896", "0.00033"]], [["313.15"], ["0.0863"], ["99"], ["1.38128", "0.00032"]], [["313.15"], ["0.101"], ["99"], ["1.38613", "0.00032"]], [["313.15"], ["0.134"], ["99"], ["1.39527", "0.00032"]], [["313.15"], ["0.243"], ["99"], ["1.41376", "0.00032"]], [["313.15"], ["0.289"], ["99"], ["1.41853", "0.00032"]], [["313.15"], ["0.3456"], ["99"], ["1.42304", "0.00032"]], [["313.15"], ["0.4217"], ["99"], ["1.42763", "0.00032"]], [["313.15"], ["0.5485"], ["99"], ["1.43295", "0.00033"]], [["313.15"], ["0.6029"], ["99"], ["1.43463", "0.00034"]], [["313.15"], ["0.7232"], ["99"], ["1.43755", "0.00034"]], [["313.15"], ["0.8005"], ["99"], ["1.43905", "0.00035"]], [["313.15"], ["0.8575"], ["99"], ["1.43999", "0.00036"]], [["313.15"], ["0.9315"], ["99"], ["1.44105", "0.00036"]], [["313.15"], ["1"], ["99"], ["1.44191", "0.00037"]], [["323.15"], ["0"], ["99"], ["1.32904", "0.00031"]], [["323.15"], ["0.0165"], ["99"], ["1.34263", "0.00034"]], [["323.15"], ["0.0379"], ["99"], ["1.35635", "0.00033"]], [["323.15"], ["0.0863"], ["99"], ["1.37835", "0.00032"]], [["323.15"], ["0.101"], ["99"], ["1.38331", "0.00032"]], [["323.15"], ["0.134"], ["99"], ["1.3926", "0.00032"]], [["323.15"], ["0.243"], ["99"], ["1.41106", "0.00032"]], [["323.15"], ["0.289"], ["99"], ["1.41585", "0.00032"]], [["323.15"], ["0.3456"], ["99"], ["1.42041", "0.00032"]], [["323.15"], ["0.4217"], ["99"], ["1.42496", "0.00032"]], [["323.15"], ["0.5485"], ["99"], ["1.43025", "0.00033"]], [["323.15"], ["0.6029"], ["99"], ["1.43194", "0.00034"]], [["323.15"], ["0.7232"], ["99"], ["1.43489", "0.00034"]], [["323.15"], ["0.8005"], ["99"], ["1.43637", "0.00035"]], [["323.15"], ["0.8575"], ["99"], ["1.43731", "0.00036"]], [["323.15"], ["0.9315"], ["99"], ["1.43838", "0.00036"]], [["323.15"], ["1"], ["99"], ["1.43923", "0.00037"]]], "solvent": null, "footer": "", "expmeth": "Standard Abbe refractometry"}