{"phases": ["Liquid mixture 1", "Liquid mixture 2"], "ref": {"title": "Asymmetric criticality of ionic solution containing 1-hexyl-3-methylimidazolium tetrafluoroborate and 2-propanol", "full": "Zhang, X.; Xu, C.; Zheng, P.; Yin, T.; Shen, W. (2016) J. Chem. Thermodyn. 100, 116-123."}, "constr": [], "expmeth": "Minimum deviation angle method", "data": [[["279.902"], ["82"], ["632.8"], ["1.3832", "0.0003"]], [["281.966"], ["82"], ["632.8"], ["1.3825", "0.0003"]], [["283.724"], ["82"], ["632.8"], ["1.3823", "0.0003"]], [["284.941"], ["82"], ["632.8"], ["1.3821", "0.0003"]], [["285.795"], ["82"], ["632.8"], ["1.382", "0.0003"]], [["286.616"], ["82"], ["632.8"], ["1.3821", "0.0003"]], [["287.131"], ["82"], ["632.8"], ["1.3821", "0.0003"]], [["287.608"], ["82"], ["632.8"], ["1.3821", "0.0003"]], [["288.004"], ["82"], ["632.8"], ["1.3821", "0.0003"]], [["288.394"], ["82"], ["632.8"], ["1.3823", "0.0003"]], [["288.762"], ["82"], ["632.8"], ["1.3825", "0.0003"]], [["289.078"], ["82"], ["632.8"], ["1.3827", "0.0003"]], [["289.37"], ["82"], ["632.8"], ["1.3829", "0.0003"]], [["289.621"], ["82"], ["632.8"], ["1.3831", "0.0003"]], [["289.859"], ["82"], ["632.8"], ["1.3834", "0.0003"]], [["290.059"], ["82"], ["632.8"], ["1.3836", "0.0003"]], [["290.218"], ["82"], ["632.8"], ["1.3838", "0.0003"]], [["290.354"], ["82"], ["632.8"], ["1.384", "0.0003"]], [["290.453"], ["82"], ["632.8"], ["1.3843", "0.0003"]], [["290.488"], ["82"], ["632.8"], ["1.3844", "0.0003"]], [["290.569"], ["82"], ["632.8"], ["1.3845", "0.0003"]], [["290.636"], ["82"], ["632.8"], ["1.3847", "0.0003"]], [["290.706"], ["82"], ["632.8"], ["1.385", "0.0003"]], [["290.761"], ["82"], ["632.8"], ["1.3852", "0.0003"]], [["290.806"], ["82"], ["632.8"], ["1.3854", "0.0003"]], [["290.849"], ["82"], ["632.8"], ["1.3856", "0.0004"]], [["290.887"], ["82"], ["632.8"], ["1.3859", "0.0004"]], [["290.919"], ["82"], ["632.8"], ["1.3861", "0.0004"]], [["290.952"], ["82"], ["632.8"], ["1.3863", "0.0004"]], [["290.976"], ["82"], ["632.8"], ["1.3865", "0.0004"]], [["290.996"], ["82"], ["632.8"], ["1.3867", "0.0005"]], [["291.017"], ["82"], ["632.8"], ["1.3869", "0.0006"]], [["291.034"], ["82"], ["632.8"], ["1.3871", "0.0006"]], [["291.05"], ["82"], ["632.8"], ["1.3873", "0.0007"]], [["291.065"], ["82"], ["632.8"], ["1.3876", "0.0007"]], [["291.077"], ["82"], ["632.8"], ["1.3878", "0.0007"]], [["291.084"], ["82"], ["632.8"], ["1.3881", "0.0009"]], [["291.093"], ["82"], ["632.8"], ["1.3884", "0.0011"]], [["291.096"], ["82"], ["632.8"], ["1.3886", "0.0012"]], [["291.099"], ["82"], ["632.8"], ["1.3889", "0.0013"]], [["291.101"], ["82"], ["632.8"], ["1.389", "0.0014"]]], "solvent": null, "footer": "", "dhead": [["Temperature, K", null], ["Pressure, kPa", null], ["Wavelength, A", "Liquid mixture 1"], ["Refractive index", "Liquid mixture 1"]], "components": [{"mw": "60.10", "idout": "AALcwx", "formula": "C<SUB>3</SUB>H<SUB>8</SUB>O", "name": "propan-2-ol", "sample": [["Source:", "commercial source"], ["Initial purification:", "stated by supplier"], ["Initial purity:", "99 mass %"], ["Final purification:", "Karl Fischer titration"], ["Final purity:", "0.0064 water mass %(molecular sieve treatment)"]]}, {"sample": [["Source:", "commercial source"], ["Initial purification:", "stated by supplier"], ["Initial purity:", "99 mass %"], ["Final purification:", "Karl Fischer titration"], ["Final purity:", "0.0058 water mass %(dried in a desiccator;dried by vacuum heating)"]], "name": "1-hexyl-3-methylimidazolium tetrafluoroborate", "formula": "C<SUB>10</SUB>H<SUB>19</SUB>BF<SUB>4</SUB>N<SUB>2</SUB>", "mw": "254.08", "idout": "AAwscj"}], "title": "Refraction, surface tension, and speed of sound: Refractive index"}