{"constr": [], "ref": {"title": "Dependency of Physicochemical Properties of Imidazolium Bis(Trifluoromethylsulfonyl)Imide-Based Ionic Liquids on Temperature and Alkyl Chain", "full": "Aljasmi, A.; AlJimaz, A. S.; AlKhaldi, K. H. A. E.; AlTuwaim, M. S. (2022) J. Chem. Eng. Data 67(4), 858-868."}, "phases": ["Liquid"], "components": [{"name": "1-methyl-3-pentylimidazolium bis(trifluoromethylsulfonyl)imide", "formula": "C<SUB>11</SUB>H<SUB>17</SUB>F<SUB>6</SUB>N<SUB>3</SUB>O<SUB>4</SUB>S<SUB>2</SUB>", "mw": "433.38", "idout": "ABfRtt", "sample": [["Source:", "commercial source"], ["Purification:", "stated by supplier"], ["Purity:", "99 % (basis not specified)"]]}], "title": "Refraction, surface tension, and speed of sound: Refractive index (Na D-line)", "dhead": [["Temperature, K", null], ["Pressure, kPa", null], ["Refractive index (Na D-line)", "Liquid"]], "data": [[["293.15"], ["101"], ["1.42976", "0.00053"]], [["298.15"], ["101"], ["1.42833", "0.00053"]], [["303.15"], ["101"], ["1.42689", "0.00053"]], [["308.15"], ["101"], ["1.42542", "0.00053"]], [["313.15"], ["101"], ["1.424", "0.00053"]], [["318.15"], ["101"], ["1.42257", "0.00053"]], [["323.15"], ["101"], ["1.42116", "0.00053"]], [["328.15"], ["101"], ["1.41972", "0.00053"]], [["333.15"], ["101"], ["1.41832", "0.00053"]], [["338.15"], ["101"], ["1.41692", "0.00053"]], [["343.15"], ["101"], ["1.41553", "0.00053"]]], "solvent": null, "footer": "", "expmeth": "Standard Abbe refractometry"}