{"ref": {"full": "Chiappe, C.; Margari, P.; Mezzetta, A.; Pomelli, C. S.; Koutsoumpos, S.; Papamichael, M.; Giannios, P.; Moutzouris, K. (2017) Phys. Chem. Chem. Phys. 19(12), 8201-8209.", "title": "Temperature effects on the viscosity and the wavelength-dependent refractive index of imidazolium-based ionic liquids with a phosphorus-containing anion"}, "constr": [], "phases": ["Liquid"], "title": "Refraction, surface tension, and speed of sound: Refractive index", "components": [{"sample": [["Source:", "synthesized by the authors"], ["Purification:", "NMR (proton)"], ["Purity:", "99 % (basis not specified)(dried by vacuum heating;solvent extraction)"]], "name": "1-hexyl-3-methylimidazolium methyl methylphosphonate", "formula": "C<SUB>12</SUB>H<SUB>25</SUB>N<SUB>2</SUB>O<SUB>3</SUB>P", "mw": "276.32", "idout": "ABBHKX"}], "dhead": [["Temperature, K", null], ["Pressure, kPa", null], ["Wavelength, A", "Liquid"], ["Refractive index", "Liquid"]], "footer": "", "data": [[["353.15"], ["101"], ["450"], ["1.4759", "0.0011"]], [["353.15"], ["101"], ["532"], ["1.4669", "0.0011"]], [["353.15"], ["101"], ["632.8"], ["1.4611", "0.0011"]], [["353.15"], ["101"], ["964"], ["1.4549", "0.0011"]], [["353.15"], ["101"], ["1551"], ["1.4503", "0.0011"]], [["363.15"], ["101"], ["450"], ["1.4736", "0.0011"]], [["363.15"], ["101"], ["532"], ["1.4645", "0.001"]], [["363.15"], ["101"], ["632.8"], ["1.4583", "0.0011"]], [["363.15"], ["101"], ["964"], ["1.4513", "0.0011"]], [["363.15"], ["101"], ["1551"], ["1.4468", "0.0011"]], [["373.15"], ["101"], ["450"], ["1.4712", "0.0011"]], [["373.15"], ["101"], ["532"], ["1.463", "0.001"]], [["373.15"], ["101"], ["632.8"], ["1.4558", "0.001"]], [["373.15"], ["101"], ["964"], ["1.4489", "0.001"]], [["373.15"], ["101"], ["1551"], ["1.4445", "0.001"]], [["383.15"], ["101"], ["450"], ["1.4688", "0.0011"]], [["383.15"], ["101"], ["532"], ["1.4602", "0.0011"]], [["383.15"], ["101"], ["632.8"], ["1.4543", "0.001"]], [["383.15"], ["101"], ["964"], ["1.4479", "0.001"]], [["383.15"], ["101"], ["1551"], ["1.4431", "0.001"]], [["393.15"], ["101"], ["450"], ["1.4667", "0.0011"]], [["393.15"], ["101"], ["532"], ["1.4583", "0.0011"]], [["393.15"], ["101"], ["632.8"], ["1.4516", "0.001"]], [["393.15"], ["101"], ["964"], ["1.4447", "0.0011"]], [["393.15"], ["101"], ["1551"], ["1.4405", "0.001"]], [["403.15"], ["101"], ["450"], ["1.4642", "0.0011"]], [["403.15"], ["101"], ["532"], ["1.4553", "0.0011"]], [["403.15"], ["101"], ["632.8"], ["1.4495", "0.0011"]], [["403.15"], ["101"], ["964"], ["1.4429", "0.0011"]], [["403.15"], ["101"], ["1551"], ["1.4391", "0.001"]], [["413.15"], ["101"], ["450"], ["1.4613", "0.0011"]], [["413.15"], ["101"], ["532"], ["1.4524", "0.001"]], [["413.15"], ["101"], ["632.8"], ["1.4466", "0.001"]], [["413.15"], ["101"], ["964"], ["1.4395", "0.001"]], [["413.15"], ["101"], ["1551"], ["1.4371", "0.001"]], [["423.15"], ["101"], ["450"], ["1.4597", "0.0011"]], [["423.15"], ["101"], ["532"], ["1.4514", "0.001"]], [["423.15"], ["101"], ["632.8"], ["1.4455", "0.001"]], [["423.15"], ["101"], ["964"], ["1.4388", "0.001"]], [["423.15"], ["101"], ["1551"], ["1.4353", "0.001"]], [["433.15"], ["101"], ["450"], ["1.4566", "0.0011"]], [["433.15"], ["101"], ["532"], ["1.4489", "0.001"]], [["433.15"], ["101"], ["632.8"], ["1.4435", "0.001"]], [["433.15"], ["101"], ["964"], ["1.4364", "0.001"]], [["433.15"], ["101"], ["1551"], ["1.4333", "0.001"]]], "solvent": null, "expmeth": "prism coupling refractometer"}