{"dhead": [["Mole fraction of ethanol", "Liquid"], ["Temperature, K", null], ["Pressure, kPa", null], ["Refractive index (Na D-line)", "Liquid"]], "components": [{"mw": "46.07", "idout": "AAIsrh", "name": "ethanol", "formula": "C<SUB>2</SUB>H<SUB>6</SUB>O", "sample": [["Source:", "commercial source"], ["Purification:", "stated by supplier"], ["Purity:", "99 % (basis not specified)"]]}, {"formula": "C<SUB>12</SUB>H<SUB>23</SUB>BF<SUB>4</SUB>N<SUB>2</SUB>", "name": "1-methyl-3-octylimidazolium tetrafluoroborate", "mw": "282.13", "idout": "ABCNhW", "sample": [["Source:", "commercial source"], ["Initial purification:", "stated by supplier"], ["Initial purity:", "98 % (basis not specified)"], ["Final purification:", "Karl Fischer titration;not known"], ["Final purity:", "0.0024 water mass %;0.1 halide impurity mass %"]]}], "title": "Refraction, surface tension, and speed of sound: Refractive index (Na D-line)", "expmeth": "Standard Abbe refractometry", "data": [[["0.081"], ["283.15"], ["101"], ["1.4335", "0.0006"]], [["0.081"], ["288.15"], ["101"], ["1.4323", "0.0006"]], [["0.081"], ["293.15"], ["101"], ["1.431", "0.0006"]], [["0.081"], ["298.15"], ["101"], ["1.4295", "0.0006"]], [["0.081"], ["303.15"], ["101"], ["1.4284", "0.0006"]], [["0.081"], ["308.15"], ["101"], ["1.4268", "0.0006"]], [["0.081"], ["313.15"], ["101"], ["1.4255", "0.0006"]], [["0.081"], ["318.15"], ["101"], ["1.424", "0.0006"]], [["0.081"], ["323.15"], ["101"], ["1.4225", "0.0006"]], [["0.081"], ["328.15"], ["101"], ["1.4213", "0.0006"]], [["0.081"], ["333.15"], ["101"], ["1.4205", "0.0006"]], [["0.081"], ["338.15"], ["101"], ["1.419", "0.0006"]], [["0.081"], ["343.15"], ["101"], ["1.4175", "0.0006"]], [["0.161"], ["283.15"], ["101"], ["1.4315", "0.0006"]], [["0.161"], ["288.15"], ["101"], ["1.4305", "0.0006"]], [["0.161"], ["293.15"], ["101"], ["1.4292", "0.0006"]], [["0.161"], ["298.15"], ["101"], ["1.428", "0.0006"]], [["0.161"], ["303.15"], ["101"], ["1.427", "0.0006"]], [["0.161"], ["308.15"], ["101"], ["1.4255", "0.0006"]], [["0.161"], ["313.15"], ["101"], ["1.424", "0.0006"]], [["0.161"], ["318.15"], ["101"], ["1.4225", "0.0006"]], [["0.161"], ["323.15"], ["101"], ["1.421", "0.0006"]], [["0.161"], ["328.15"], ["101"], ["1.42", "0.0006"]], [["0.161"], ["333.15"], ["101"], ["1.4188", "0.0006"]], [["0.161"], ["338.15"], ["101"], ["1.4173", "0.0006"]], [["0.161"], ["343.15"], ["101"], ["1.416", "0.0006"]], [["0.315"], ["283.15"], ["101"], ["1.43", "0.0006"]], [["0.315"], ["288.15"], ["101"], ["1.4288", "0.0006"]], [["0.315"], ["293.15"], ["101"], ["1.4273", "0.0006"]], [["0.315"], ["298.15"], ["101"], ["1.426", "0.0006"]], [["0.315"], ["303.15"], ["101"], ["1.4245", "0.0006"]], [["0.315"], ["308.15"], ["101"], ["1.423", "0.0006"]], [["0.315"], ["313.15"], ["101"], ["1.4219", "0.0006"]], [["0.315"], ["318.15"], ["101"], ["1.4205", "0.0006"]], [["0.315"], ["323.15"], ["101"], ["1.419", "0.0006"]], [["0.315"], ["328.15"], ["101"], ["1.4178", "0.0006"]], [["0.315"], ["333.15"], ["101"], ["1.416", "0.0006"]], [["0.315"], ["338.15"], ["101"], ["1.4145", "0.0006"]], [["0.315"], ["343.15"], ["101"], ["1.4132", "0.0006"]], [["0.511"], ["283.15"], ["101"], ["1.4265", "0.0006"]], [["0.511"], ["288.15"], ["101"], ["1.425", "0.0006"]], [["0.511"], ["293.15"], ["101"], ["1.4237", "0.0006"]], [["0.511"], ["298.15"], ["101"], ["1.423", "0.0006"]], [["0.511"], ["303.15"], ["101"], ["1.4208", "0.0006"]], [["0.511"], ["308.15"], ["101"], ["1.4195", "0.0006"]], [["0.511"], ["313.15"], ["101"], ["1.418", "0.0006"]], [["0.511"], ["318.15"], ["101"], ["1.4168", "0.0006"]], [["0.511"], ["323.15"], ["101"], ["1.415", "0.0006"]], [["0.511"], ["328.15"], ["101"], ["1.4137", "0.0006"]], [["0.511"], ["333.15"], ["101"], ["1.4125", "0.0006"]], [["0.511"], ["338.15"], ["101"], ["1.4118", "0.0006"]], [["0.511"], ["343.15"], ["101"], ["1.411", "0.0006"]], [["0.612"], ["283.15"], ["101"], ["1.4225", "0.0006"]], [["0.612"], ["288.15"], ["101"], ["1.4212", "0.0006"]], [["0.612"], ["293.15"], ["101"], ["1.42", "0.0006"]], [["0.612"], ["298.15"], ["101"], ["1.4185", "0.0006"]], [["0.612"], ["303.15"], ["101"], ["1.4172", "0.0006"]], [["0.612"], ["308.15"], ["101"], ["1.416", "0.0006"]], [["0.612"], ["313.15"], ["101"], ["1.4143", "0.0006"]], [["0.612"], ["318.15"], ["101"], ["1.413", "0.0006"]], [["0.612"], ["323.15"], ["101"], ["1.4115", "0.0006"]], [["0.612"], ["328.15"], ["101"], ["1.41", "0.0006"]], [["0.612"], ["333.15"], ["101"], ["1.4085", "0.0006"]], [["0.612"], ["338.15"], ["101"], ["1.4078", "0.0006"]], [["0.612"], ["343.15"], ["101"], ["1.4065", "0.0006"]], [["0.753"], ["283.15"], ["101"], ["1.4132", "0.0006"]], [["0.753"], ["288.15"], ["101"], ["1.4125", "0.0006"]], [["0.753"], ["293.15"], ["101"], ["1.411", "0.0006"]], [["0.753"], ["298.15"], ["101"], ["1.4098", "0.0006"]], [["0.753"], ["303.15"], ["101"], ["1.4085", "0.0006"]], [["0.753"], ["308.15"], ["101"], ["1.4072", "0.0006"]], [["0.753"], ["313.15"], ["101"], ["1.407", "0.0006"]], [["0.753"], ["318.15"], ["101"], ["1.4065", "0.0006"]], [["0.753"], ["323.15"], ["101"], ["1.4055", "0.0006"]], [["0.753"], ["328.15"], ["101"], ["1.4045", "0.0006"]], [["0.753"], ["333.15"], ["101"], ["1.404", "0.0006"]], [["0.753"], ["338.15"], ["101"], ["1.4033", "0.0006"]], [["0.753"], ["343.15"], ["101"], ["1.402", "0.0006"]]], "solvent": null, "footer": "", "ref": {"title": "Densities, Refractive Indices, and Viscosities of the Ionic Liquids 1-Methyl-3-octylimidazolium Tetrafluoroborate and 1-Methyl-3-butylimidazolium Perchlorate and Their Binary Mixtures with Ethanol at Several Temperatures", "full": "Mokhtarani, B.; Mojtahedi, M. M.; Mortaheb, H. R.; Mafi, M.; Yazdani, F.; Sadeghian, F. (2008) J. Chem. Eng. Data 53(3), 677-682."}, "constr": [], "phases": ["Liquid"]}