{"title": "Refraction, surface tension, and speed of sound: Refractive index", "components": [{"sample": [["Source:", "synthesized by the authors"], ["Purification:", "NMR (proton)"], ["Purity:", "99 % (basis not specified)(dried by vacuum heating;solvent extraction)"]], "mw": "222.18", "idout": "AAqlaB", "name": "1,3-dimethylimidazolium dimethyl phosphate", "formula": "C<SUB>7</SUB>H<SUB>15</SUB>N<SUB>2</SUB>O<SUB>4</SUB>P"}], "dhead": [["Temperature, K", null], ["Pressure, kPa", null], ["Wavelength, A", "Liquid"], ["Refractive index", "Liquid"]], "footer": "", "solvent": null, "data": [[["353.15"], ["101"], ["450"], ["1.4761", "0.001"]], [["353.15"], ["101"], ["532"], ["1.4699", "0.001"]], [["353.15"], ["101"], ["632.8"], ["1.4644", "0.0011"]], [["353.15"], ["101"], ["964"], ["1.4592", "0.0011"]], [["353.15"], ["101"], ["1551"], ["1.4544", "0.001"]], [["363.15"], ["101"], ["450"], ["1.4751", "0.001"]], [["363.15"], ["101"], ["532"], ["1.4684", "0.001"]], [["363.15"], ["101"], ["632.8"], ["1.4637", "0.001"]], [["363.15"], ["101"], ["964"], ["1.4575", "0.001"]], [["363.15"], ["101"], ["1551"], ["1.4528", "0.001"]], [["373.15"], ["101"], ["450"], ["1.4744", "0.001"]], [["373.15"], ["101"], ["532"], ["1.4669", "0.001"]], [["373.15"], ["101"], ["632.8"], ["1.4611", "0.001"]], [["373.15"], ["101"], ["964"], ["1.455", "0.001"]], [["373.15"], ["101"], ["1551"], ["1.4515", "0.001"]], [["383.15"], ["101"], ["450"], ["1.4728", "0.001"]], [["383.15"], ["101"], ["532"], ["1.4659", "0.001"]], [["383.15"], ["101"], ["632.8"], ["1.4611", "0.001"]], [["383.15"], ["101"], ["964"], ["1.4543", "0.001"]], [["383.15"], ["101"], ["1551"], ["1.4498", "0.001"]], [["393.15"], ["101"], ["450"], ["1.4709", "0.001"]], [["393.15"], ["101"], ["532"], ["1.4641", "0.001"]], [["393.15"], ["101"], ["632.8"], ["1.4594", "0.001"]], [["393.15"], ["101"], ["964"], ["1.4517", "0.001"]], [["393.15"], ["101"], ["1551"], ["1.4473", "0.001"]], [["403.15"], ["101"], ["450"], ["1.4698", "0.001"]], [["403.15"], ["101"], ["532"], ["1.4625", "0.001"]], [["403.15"], ["101"], ["632.8"], ["1.4583", "0.001"]], [["403.15"], ["101"], ["964"], ["1.4507", "0.001"]], [["403.15"], ["101"], ["1551"], ["1.4464", "0.001"]], [["413.15"], ["101"], ["450"], ["1.4688", "0.001"]], [["413.15"], ["101"], ["532"], ["1.4606", "0.001"]], [["413.15"], ["101"], ["632.8"], ["1.4569", "0.001"]], [["413.15"], ["101"], ["964"], ["1.4493", "0.001"]], [["413.15"], ["101"], ["1551"], ["1.4445", "0.001"]], [["423.15"], ["101"], ["450"], ["1.4669", "0.001"]], [["423.15"], ["101"], ["532"], ["1.4596", "0.001"]], [["423.15"], ["101"], ["632.8"], ["1.4552", "0.001"]], [["423.15"], ["101"], ["964"], ["1.4483", "0.001"]], [["423.15"], ["101"], ["1551"], ["1.4443", "0.001"]], [["433.15"], ["101"], ["450"], ["1.4652", "0.001"]], [["433.15"], ["101"], ["532"], ["1.4578", "0.001"]], [["433.15"], ["101"], ["632.8"], ["1.4534", "0.001"]], [["433.15"], ["101"], ["964"], ["1.4458", "0.001"]], [["433.15"], ["101"], ["1551"], ["1.4422", "0.001"]]], "expmeth": "prism coupling refractometer", "ref": {"title": "Temperature effects on the viscosity and the wavelength-dependent refractive index of imidazolium-based ionic liquids with a phosphorus-containing anion", "full": "Chiappe, C.; Margari, P.; Mezzetta, A.; Pomelli, C. S.; Koutsoumpos, S.; Papamichael, M.; Giannios, P.; Moutzouris, K. (2017) Phys. Chem. Chem. Phys. 19(12), 8201-8209."}, "constr": [], "phases": ["Liquid"]}