{"expmeth": "minimum deviation method", "data": [[["300.831"], ["93"], ["632.8"], ["1.3746", "0.0003"]], [["301.881"], ["93"], ["632.8"], ["1.3743", "0.0003"]], [["302.95"], ["93"], ["632.8"], ["1.374", "0.0003"]], [["303.825"], ["93"], ["632.8"], ["1.3739", "0.0003"]], [["304.665"], ["93"], ["632.8"], ["1.3738", "0.0003"]], [["305.283"], ["93"], ["632.8"], ["1.3737", "0.0003"]], [["305.857"], ["93"], ["632.8"], ["1.3736", "0.0003"]], [["306.362"], ["93"], ["632.8"], ["1.3737", "0.0003"]], [["306.801"], ["93"], ["632.8"], ["1.3737", "0.0003"]], [["307.182"], ["93"], ["632.8"], ["1.3738", "0.0003"]], [["307.516"], ["93"], ["632.8"], ["1.3739", "0.0003"]], [["307.818"], ["93"], ["632.8"], ["1.3738", "0.0003"]], [["308.085"], ["93"], ["632.8"], ["1.374", "0.0003"]], [["308.326"], ["93"], ["632.8"], ["1.3741", "0.0003"]], [["308.542"], ["93"], ["632.8"], ["1.3742", "0.0003"]], [["308.75"], ["93"], ["632.8"], ["1.3743", "0.0003"]], [["308.944"], ["93"], ["632.8"], ["1.3745", "0.0003"]], [["309.127"], ["93"], ["632.8"], ["1.3747", "0.0003"]], [["309.3"], ["93"], ["632.8"], ["1.3748", "0.0003"]], [["309.453"], ["93"], ["632.8"], ["1.375", "0.0003"]], [["309.597"], ["93"], ["632.8"], ["1.3752", "0.0003"]], [["309.72"], ["93"], ["632.8"], ["1.3754", "0.0003"]], [["309.838"], ["93"], ["632.8"], ["1.3757", "0.0003"]], [["309.937"], ["93"], ["632.8"], ["1.3759", "0.0003"]], [["310.026"], ["93"], ["632.8"], ["1.3761", "0.0003"]], [["310.099"], ["93"], ["632.8"], ["1.3764", "0.0003"]], [["310.158"], ["93"], ["632.8"], ["1.3766", "0.0003"]], [["310.199"], ["93"], ["632.8"], ["1.3768", "0.0003"]], [["310.24"], ["93"], ["632.8"], ["1.377", "0.0003"]], [["310.275"], ["93"], ["632.8"], ["1.3772", "0.0004"]], [["310.302"], ["93"], ["632.8"], ["1.3774", "0.0004"]], [["310.331"], ["93"], ["632.8"], ["1.3776", "0.0004"]], [["310.354"], ["93"], ["632.8"], ["1.3778", "0.0005"]], [["310.377"], ["93"], ["632.8"], ["1.378", "0.0005"]], [["310.391"], ["93"], ["632.8"], ["1.3782", "0.0005"]], [["310.406"], ["93"], ["632.8"], ["1.3784", "0.0006"]], [["310.419"], ["93"], ["632.8"], ["1.3785", "0.0008"]], [["310.427"], ["93"], ["632.8"], ["1.3786", "0.0009"]], [["310.438"], ["93"], ["632.8"], ["1.3788", "0.0006"]], [["310.442"], ["93"], ["632.8"], ["1.379", "0.0007"]], [["310.449"], ["93"], ["632.8"], ["1.3792", "0.0008"]], [["310.453"], ["93"], ["632.8"], ["1.3794", "0.0009"]], [["310.458"], ["93"], ["632.8"], ["1.3795", "0.0009"]], [["310.462"], ["93"], ["632.8"], ["1.3796", "0.0011"]], [["310.467"], ["93"], ["632.8"], ["1.3799", "0.0013"]]], "solvent": null, "footer": "", "dhead": [["Temperature, K", null], ["Pressure, kPa", null], ["Wavelength, A", "Liquid mixture 1"], ["Refractive index", "Liquid mixture 1"]], "components": [{"mw": "60.10", "idout": "AALcwx", "name": "propan-2-ol", "formula": "C<SUB>3</SUB>H<SUB>8</SUB>O", "sample": [["Source:", "commercial source"], ["Initial purification:", "stated by supplier"], ["Initial purity:", "99.5 mass %"], ["Final purification:", "Karl Fischer titration"], ["Final purity:", "0.0064 water mass %(molecular sieve treatment)"]]}, {"sample": [["Source:", "commercial source"], ["Initial purification:", "stated by supplier"], ["Initial purity:", "99 mass %"], ["Final purification:", "Karl Fischer titration"], ["Final purity:", "0.0164 water mass %(dried in a desiccator;dried by vacuum heating)"]], "idout": "ABNWoR", "mw": "340.29", "formula": "C<SUB>12</SUB>H<SUB>23</SUB>F<SUB>6</SUB>N<SUB>2</SUB>P", "name": "1-octyl-3-methylimidazolium hexafluorophosphate"}], "title": "Refraction, surface tension, and speed of sound: Refractive index", "phases": ["Liquid mixture 1", "Liquid mixture 2"], "constr": [], "ref": {"title": "Liquid-liquid phase equilibrium and heat capacity of binary solution {2-propanol + 1-octyl-3-methylimidazolium hexafluorophosphate}", "full": "Guo, Y.; Zhang, X.; Xu, C.; Shen, W. (2017) J. Chem. Thermodyn. 105, 434-442."}}