{"phases": ["Liquid"], "constr": [], "ref": {"full": "Soriano, A. N.; Doma Jr., B. T.; Li, M.-H. (2010) J. Taiwan Inst. Chem. Eng. 41, 115-121.", "title": "Density and refractive index measurements of 1-ethyl-3-methylimidazolium-based ionic liquids"}, "footer": "", "data": [[["293.2"], ["101.325"], ["1.482", "0.0008"]], [["298.2"], ["101.325"], ["1.4811", "0.0008"]], [["299.2"], ["101.325"], ["1.481", "0.0008"]], [["300.2"], ["101.325"], ["1.4808", "0.0008"]], [["301.2"], ["101.325"], ["1.4806", "0.0008"]], [["302.2"], ["101.325"], ["1.4804", "0.0008"]], [["303.2"], ["101.325"], ["1.4802", "0.0008"]], [["304.2"], ["101.325"], ["1.4801", "0.0008"]], [["305.2"], ["101.325"], ["1.4799", "0.0008"]], [["306.2"], ["101.325"], ["1.4797", "0.0008"]], [["307.2"], ["101.325"], ["1.4795", "0.0008"]], [["308.2"], ["101.325"], ["1.4793", "0.0008"]]], "solvent": null, "expmeth": "Standard Abbe refractometry", "title": "Refraction, surface tension, and speed of sound: Refractive index (Na D-line)", "components": [{"formula": "C<SUB>11</SUB>H<SUB>22</SUB>N<SUB>2</SUB>O<SUB>6</SUB>S", "name": "1-ethyl-3-methylimidazolium 2-(2-methoxyethoxy) ethylsulfate", "idout": "ABHjxw", "mw": "310.37", "sample": [["Source:", "commercial source"], ["Initial purification:", "stated by supplier"], ["Initial purity:", "98.2 mass %"], ["Final purification:", "not known"], ["Final purity:", "0.2 water mass %(dried in a desiccator)"]]}], "dhead": [["Temperature, K", null], ["Pressure, kPa", null], ["Refractive index (Na D-line)", "Liquid"]]}