{"ref": {"title": "Highly precise (liquid + liquid) equilibrium and heat capacity measurements near the critical point for [Bmim][BF4] + 1H, 1H, 2H, 2H perfluoroctanol", "full": "Perez-Sanchez, G.; Troncoso, J.; Losada-Perez, P.; Mendez-Castro, P.; Romani, L. (2013) J. Chem. Thermodyn. 65, 131-137."}, "constr": [], "phases": ["Liquid mixture 2", "Liquid mixture 1"], "components": [{"idout": "ABSBzL", "mw": "364.11", "name": "1H,1H,2H,2H-perfluorooctanol", "formula": "C<SUB>8</SUB>H<SUB>5</SUB>F<SUB>13</SUB>O", "sample": [["Source:", "commercial source"], ["Purification:", "stated by supplier"], ["Purity:", "99 mol %"], ["Purity analysis:", "molecular sieve treatment"]]}, {"sample": [["Source:", "commercial source"], ["Purification:", "stated by supplier"], ["Purity:", "99 mol %"], ["Purity analysis:", "dried by vacuum heating"]], "name": "1-butyl-3-methylimidazolium tetrafluoroborate", "formula": "C<SUB>8</SUB>H<SUB>15</SUB>BF<SUB>4</SUB>N<SUB>2</SUB>", "idout": "AArYBF", "mw": "226.03"}], "title": "Refraction, surface tension, and speed of sound: Refractive index", "dhead": [["Temperature, K", null], ["Pressure, kPa", null], ["Wavelength, A", "Liquid mixture 2"], ["Refractive index", "Liquid mixture 2"]], "data": [[["295.02"], ["101"], ["633"], ["1.3609", "0.0021"]], [["296.75"], ["101"], ["633"], ["1.3635", "0.0021"]], [["297.47"], ["101"], ["633"], ["1.3648", "0.0021"]], [["297.98"], ["101"], ["633"], ["1.3658", "0.0021"]], [["298.73"], ["101"], ["633"], ["1.3673", "0.0021"]], [["299.44"], ["101"], ["633"], ["1.3686", "0.0021"]], [["299.96"], ["101"], ["633"], ["1.3701", "0.002"]], [["300.43"], ["101"], ["633"], ["1.3712", "0.002"]], [["300.92"], ["101"], ["633"], ["1.3726", "0.0021"]], [["301.42"], ["101"], ["633"], ["1.3736", "0.0021"]], [["301.96"], ["101"], ["633"], ["1.3757", "0.0021"]], [["302.44"], ["101"], ["633"], ["1.378", "0.0021"]], [["302.94"], ["101"], ["633"], ["1.3803", "0.002"]], [["303.54"], ["101"], ["633"], ["1.3852", "0.0021"]]], "solvent": null, "footer": "", "expmeth": "Standard Abbe refractometry"}