{"ref": {"full": "Kumar, A.; Singh, T.; Gardas, R. L.; Coutinho, J. A. P. (2008) J. Chem. Thermodyn. 40(1), 32-39.", "title": "Non-ideal behaviour of a room temperature ionic liquid in an alkoxyethanol or poly ethers at T = (298.15 to 318.15) K"}, "constr": [], "phases": ["Liquid"], "components": [{"sample": [["Source:", "commercial source"], ["Purification:", "stated by supplier"], ["Purity:", "99 mol %"], ["Purity analysis:", "none used"]], "name": "2,5,8-trioxanonane", "formula": "C<SUB>6</SUB>H<SUB>14</SUB>O<SUB>3</SUB>", "idout": "AAZpGJ", "mw": "134.18"}, {"formula": "C<SUB>8</SUB>H<SUB>15</SUB>F<SUB>6</SUB>N<SUB>2</SUB>P", "name": "1-butyl-3-methylimidazolium hexafluorophosphate", "idout": "ABChJv", "mw": "284.19", "sample": [["Source:", "commercial source"], ["Initial purification:", "stated by supplier"], ["Initial purity:", "98 mol %"], ["Final purification:", "Karl Fischer titration"], ["Final purity:", "0.01 water mass %(de-gassed by evacuation;dried by vacuum heating)"]]}], "title": "Refraction, surface tension, and speed of sound: Refractive index (Na D-line)", "dhead": [["Mole fraction of 1-butyl-3-methylimidazolium hexafluorophosphate", "Liquid"], ["Pressure, kPa", null], ["Temperature, K", null], ["Refractive index (Na D-line)", "Liquid"]], "data": [[["0"], ["101"], ["298.15"], ["1.4058", "0.0025"]], [["0.0039"], ["101"], ["298.15"], ["1.4063", "0.0025"]], [["0.0076"], ["101"], ["298.15"], ["1.4065", "0.0025"]], [["0.0127"], ["101"], ["298.15"], ["1.407", "0.003"]], [["0.0304"], ["101"], ["298.15"], ["1.4081", "0.0025"]], [["0.0505"], ["101"], ["298.15"], ["1.4092", "0.0025"]], [["0.1003"], ["101"], ["298.15"], ["1.4113", "0.0025"]], [["0.1617"], ["101"], ["298.15"], ["1.4141", "0.0025"]], [["0.207"], ["101"], ["298.15"], ["1.4149", "0.0025"]], [["0.3024"], ["101"], ["298.15"], ["1.4148", "0.0025"]], [["0.4018"], ["101"], ["298.15"], ["1.4142", "0.0025"]], [["0.5023"], ["101"], ["298.15"], ["1.4138", "0.0025"]], [["0.5623"], ["101"], ["298.15"], ["1.4123", "0.0025"]], [["0.7197"], ["101"], ["298.15"], ["1.4098", "0.0025"]], [["0.9477"], ["101"], ["298.15"], ["1.4094", "0.0025"]], [["0.9842"], ["101"], ["298.15"], ["1.4089", "0.0025"]], [["1"], ["101"], ["298.15"], ["1.4058", "0.0025"]]], "solvent": null, "footer": "", "expmeth": "Standard Abbe refractometry"}