{"constr": [], "ref": {"title": "Viscosities and Volumetric Properties of Binary and Ternary Mixtures of Tris(2-hydroxyethyl) Methylammonium Methylsulfate + Water + Ethanol at 298.15 K", "full": "Arce, A.; Soto, A.; Ortega, J.; Sabater, G. (2008) J. Chem. Eng. Data 53(3), 770-775."}, "phases": ["Liquid"], "components": [{"sample": [["Source:", "commercial source"], ["Purification:", "stated by supplier"], ["Purity:", "99.8 mass %"]], "name": "ethanol", "formula": "C<SUB>2</SUB>H<SUB>6</SUB>O", "idout": "AAIsrh", "mw": "46.07"}, {"idout": "AADYJk", "mw": "18.02", "formula": "H<SUB>2</SUB>O", "name": "water", "sample": [["Source:", "commercial source"], ["Purification:", "estimated by the compiler"], ["Purity:", "99.9 % (basis not specified)"]]}, {"name": "tris(2-hydroxyethyl) methylammonium methylsulfate", "formula": "C<SUB>8</SUB>H<SUB>21</SUB>NO<SUB>7</SUB>S", "idout": "ABAxwq", "mw": "275.32", "sample": [["Source:", "commercial source"], ["Initial purification:", "stated by supplier"], ["Initial purity:", "95 mass %"], ["Final purification:", "Karl Fischer titration"], ["Final purity:", "0.000195 water mass %(dried by vacuum heating)"]]}], "title": "Refraction, surface tension, and speed of sound: Refractive index (Na D-line)", "dhead": [["Mole fraction of tris(2-hydroxyethyl) methylammonium methylsulfate", "Liquid"], ["Mole fraction of water", "Liquid"], ["Temperature, K", null], ["Pressure, kPa", null], ["Refractive index (Na D-line)", "Liquid"]], "data": [[["0"], ["0.048"], ["298.15"], ["101"], ["1.36013", "0.00031"]], [["0"], ["0.1116"], ["298.15"], ["101"], ["1.361", "0.00031"]], [["0"], ["0.1599"], ["298.15"], ["101"], ["1.3615", "0.00031"]], [["0"], ["0.1761"], ["298.15"], ["101"], ["1.36168", "0.00031"]], [["0"], ["0.2668"], ["298.15"], ["101"], ["1.36247", "0.00031"]], [["0"], ["0.301"], ["298.15"], ["101"], ["1.36266", "0.00031"]], [["0"], ["0.3994"], ["298.15"], ["101"], ["1.36295", "0.00031"]], [["0"], ["0.497"], ["298.15"], ["101"], ["1.3628", "0.00031"]], [["0"], ["0.6122"], ["298.15"], ["101"], ["1.36176", "0.00031"]], [["0"], ["0.7116"], ["298.15"], ["101"], ["1.35974", "0.00031"]], [["0"], ["0.7774"], ["298.15"], ["101"], ["1.35727", "0.00031"]], [["0"], ["0.8145"], ["298.15"], ["101"], ["1.3554", "0.00031"]], [["0"], ["0.8529"], ["298.15"], ["101"], ["1.35243", "0.00031"]], [["0"], ["0.8967"], ["298.15"], ["101"], ["1.34783", "0.00032"]], [["0"], ["0.9481"], ["298.15"], ["101"], ["1.34063", "0.00032"]], [["0.0096"], ["0.9515"], ["298.15"], ["101"], ["1.35307", "0.00056"]], [["0.0185"], ["0.9541"], ["298.15"], ["101"], ["1.3626", "0.0005"]], [["0.0193"], ["0.9025"], ["298.15"], ["101"], ["1.36833", "0.00047"]], [["0.0274"], ["0.9499"], ["298.15"], ["101"], ["1.37214", "0.00052"]], [["0.034"], ["0.9508"], ["298.15"], ["101"], ["1.37802", "0.00046"]], [["0.0384"], ["0.9046"], ["298.15"], ["101"], ["1.38445", "0.0004"]], [["0.0385"], ["0.8054"], ["298.15"], ["101"], ["1.38821", "0.00039"]], [["0.04"], ["0.9529"], ["298.15"], ["101"], ["1.3825", "0.00045"]], [["0.0478"], ["0.9522"], ["298.15"], ["101"], ["1.38887", "0.00046"]], [["0.0482"], ["0"], ["298.15"], ["101"], ["1.3818", "0.00035"]], [["0.0545"], ["0.9004"], ["298.15"], ["101"], ["1.396", "0.00044"]], [["0.0604"], ["0.6951"], ["298.15"], ["101"], ["1.40102", "0.00034"]], [["0.0665"], ["0.9037"], ["298.15"], ["101"], ["1.40282", "0.00041"]], [["0.0771"], ["0.6108"], ["298.15"], ["101"], ["1.40779", "0.00038"]], [["0.0784"], ["0.8056"], ["298.15"], ["101"], ["1.41028", "0.00038"]], [["0.0803"], ["0.9053"], ["298.15"], ["101"], ["1.41007", "0.00038"]], [["0.0967"], ["0.9033"], ["298.15"], ["101"], ["1.41769", "0.00038"]], [["0.0974"], ["0.5081"], ["298.15"], ["101"], ["1.41295", "0.00037"]], [["0.0981"], ["0"], ["298.15"], ["101"], ["1.39899", "0.00036"]], [["0.1061"], ["0.8061"], ["298.15"], ["101"], ["1.4221", "0.00037"]], [["0.1144"], ["0.716"], ["298.15"], ["101"], ["1.42353", "0.00039"]], [["0.1183"], ["0.4028"], ["298.15"], ["101"], ["1.41691", "0.00039"]], [["0.1345"], ["0.8054"], ["298.15"], ["101"], ["1.43142", "0.00037"]], [["0.1357"], ["0.3151"], ["298.15"], ["101"], ["1.41909", "0.00037"]], [["0.1509"], ["0"], ["298.15"], ["101"], ["1.41373", "0.00038"]], [["0.1578"], ["0.2037"], ["298.15"], ["101"], ["1.42127", "0.00037"]], [["0.1601"], ["0.6028"], ["298.15"], ["101"], ["1.43423", "0.00038"]], [["0.1627"], ["0.8081"], ["298.15"], ["101"], ["1.43874", "0.00037"]], [["0.1628"], ["0.7025"], ["298.15"], ["101"], ["1.43775", "0.00038"]], [["0.1775"], ["0.1042"], ["298.15"], ["101"], ["1.42317", "0.00039"]], [["0.1939"], ["0.8061"], ["298.15"], ["101"], ["1.44581", "0.00039"]], [["0.196"], ["0.5137"], ["298.15"], ["101"], ["1.43994", "0.00039"]], [["0.1994"], ["0"], ["298.15"], ["101"], ["1.42476", "0.0004"]], [["0.2047"], ["0.7037"], ["298.15"], ["101"], ["1.44641", "0.00039"]], [["0.2148"], ["0.6073"], ["298.15"], ["101"], ["1.44684", "0.00039"]], [["0.2303"], ["0.4284"], ["298.15"], ["101"], ["1.44363", "0.00042"]], [["0.242"], ["0"], ["298.15"], ["101"], ["1.43322", "0.00042"]], [["0.2421"], ["0.7579"], ["298.15"], ["101"], ["1.4539", "0.00041"]], [["0.258"], ["0.6959"], ["298.15"], ["101"], ["1.45477", "0.00042"]], [["0.2711"], ["0.3273"], ["298.15"], ["101"], ["1.44763", "0.00043"]], [["0.2721"], ["0.5027"], ["298.15"], ["101"], ["1.45274", "0.00043"]], [["0.2894"], ["0.7106"], ["298.15"], ["101"], ["1.45949", "0.00044"]], [["0.2909"], ["0.579"], ["298.15"], ["101"], ["1.45521", "0.00044"]], [["0.2922"], ["0"], ["298.15"], ["101"], ["1.44083", "0.00045"]], [["0.3173"], ["0.2125"], ["298.15"], ["101"], ["1.45114", "0.00046"]], [["0.3207"], ["0.4139"], ["298.15"], ["101"], ["1.45663", "0.00046"]], [["0.3373"], ["0.5118"], ["298.15"], ["101"], ["1.46074", "0.00047"]], [["0.3622"], ["0.1012"], ["298.15"], ["101"], ["1.45272", "0.0005"]], [["0.3753"], ["0.314"], ["298.15"], ["101"], ["1.45992", "0.0005"]], [["0.3872"], ["0.6128"], ["298.15"], ["101"], ["1.46758", "0.00051"]], [["0.3882"], ["0"], ["298.15"], ["101"], ["1.45307", "0.00052"]], [["0.4007"], ["0.4199"], ["298.15"], ["101"], ["1.46487", "0.00052"]], [["0.4078"], ["0.5193"], ["298.15"], ["101"], ["1.46736", "0.00052"]], [["0.4378"], ["0.1998"], ["298.15"], ["101"], ["1.46278", "0.00055"]], [["0.4806"], ["0.3043"], ["298.15"], ["101"], ["1.46847", "0.00059"]], [["0.4841"], ["0"], ["298.15"], ["101"], ["1.46222", "0.00059"]], [["0.4858"], ["0.5142"], ["298.15"], ["101"], ["1.47335", "0.00059"]], [["0.4869"], ["0.11"], ["298.15"], ["101"], ["1.46471", "0.00059"]], [["0.5015"], ["0.4088"], ["298.15"], ["101"], ["1.47232", "0.0006"]], [["0.5506"], ["0.203"], ["298.15"], ["101"], ["1.47091", "0.00064"]], [["0.5789"], ["0.3175"], ["298.15"], ["101"], ["1.47504", "0.00067"]], [["0.5923"], ["0"], ["298.15"], ["101"], ["1.4695", "0.00068"]], [["0.6064"], ["0.3936"], ["298.15"], ["101"], ["1.47587", "0.00069"]], [["0.6164"], ["0.1078"], ["298.15"], ["101"], ["1.47296", "0.0007"]], [["0.6288"], ["0"], ["298.15"], ["101"], ["1.47153", "0.00072"]], [["0.6698"], ["0.3302"], ["298.15"], ["101"], ["1.47878", "0.00074"]], [["0.6702"], ["0.21"], ["298.15"], ["101"], ["1.47704", "0.00075"]], [["0.6881"], ["0"], ["298.15"], ["101"], ["1.47511", "0.00077"]], [["0.709"], ["0.1642"], ["298.15"], ["101"], ["1.47809", "0.00078"]], [["0.7379"], ["0"], ["298.15"], ["101"], ["1.47666", "0.00081"]], [["0.753"], ["0.1124"], ["298.15"], ["101"], ["1.4788", "0.00082"]], [["0.7822"], ["0.2178"], ["298.15"], ["101"], ["1.4813", "0.00085"]], [["0.7878"], ["0"], ["298.15"], ["101"], ["1.47867", "0.00085"]], [["0.8379"], ["0"], ["298.15"], ["101"], ["1.48018", "0.0009"]], [["0.867"], ["0.133"], ["298.15"], ["101"], ["1.4827", "0.00092"]], [["0.8738"], ["0"], ["298.15"], ["101"], ["1.48134", "0.00093"]], [["0.9203"], ["0"], ["298.15"], ["101"], ["1.48278", "0.00097"]], [["0.9398"], ["0.0602"], ["298.15"], ["101"], ["1.48341", "0.00099"]]], "solvent": null, "footer": "", "expmeth": "Standard Abbe refractometry"}