{"title": "Refraction, surface tension, and speed of sound: Refractive index (Na D-line)", "components": [{"sample": [["Source:", "commercial source"], ["Initial purification:", "stated by supplier"], ["Initial purity:", "98 mass %"], ["Final purification:", "Karl Fischer titration"], ["Final purity:", "0.01 water mass %(dried by vacuum heating)"]], "idout": "AAniqB", "mw": "206.26", "name": "1-ethyl-3-methylimidazolium methanesulfonate", "formula": "C<SUB>7</SUB>H<SUB>14</SUB>N<SUB>2</SUB>O<SUB>3</SUB>S"}], "dhead": [["Temperature, K", null], ["Pressure, kPa", null], ["Refractive index (Na D-line)", "Liquid"]], "footer": "", "data": [[["283.15"], ["101.325"], ["1.49994", "0.00063"]], [["288.15"], ["101.325"], ["1.49855", "0.00063"]], [["293.15"], ["101.325"], ["1.49718", "0.00063"]], [["298.15"], ["101.325"], ["1.49582", "0.00063"]], [["303.15"], ["101.325"], ["1.49444", "0.00063"]], [["308.15"], ["101.325"], ["1.49308", "0.00063"]], [["313.15"], ["101.325"], ["1.49172", "0.00063"]], [["318.15"], ["101.325"], ["1.49039", "0.00063"]], [["323.15"], ["101.325"], ["1.48905", "0.00063"]], [["328.15"], ["101.325"], ["1.48768", "0.00063"]], [["333.15"], ["101.325"], ["1.48638", "0.00063"]], [["338.15"], ["101.325"], ["1.48498", "0.00063"]], [["343.15"], ["101.325"], ["1.48367", "0.00063"]], [["348.15"], ["101.325"], ["1.4823", "0.00063"]], [["353.15"], ["101.325"], ["1.48095", "0.00063"]]], "solvent": null, "expmeth": "Standard Abbe refractometry", "constr": [], "ref": {"full": "Seki, S.; Tsuzuki, S.; Hayamizu, K.; Umebayashi, Y.; Serizawa, N.; Takei, K.; Miyashiro, H. (2012) J. Chem. Eng. Data 57(8), 2211-2216.", "title": "Comprehensive Refractive Index Property for Room-Temperature Ionic Liquids"}, "phases": ["Liquid"]}