{"title": "Refraction, surface tension, and speed of sound: Refractive index (Na D-line)", "components": [{"sample": [["Source:", "synthesized by the authors"], ["Purification:", "estimated by the compiler;Karl Fischer titration"], ["Purity:", "98 mass %;0.489 water mass %(dried by vacuum heating)"]], "idout": "AAupbB", "mw": "243.31", "formula": "C<SUB>11</SUB>H<SUB>21</SUB>N<SUB>3</SUB>O<SUB>3</SUB>", "name": "1-(4-methoxybutyl)-3-methylimidazolium glycinate"}, {"name": "water", "formula": "H<SUB>2</SUB>O", "mw": "18.02", "idout": "AADYJk", "sample": [["Source:", "commercial source"], ["Purification:", "estimated by the compiler"], ["Purity:", "99.9 mass %(fractional distillation)"]]}], "dhead": [["Weight fraction of water", "Liquid"], ["Temperature, K", null], ["Pressure, kPa", null], ["Refractive index (Na D-line)", "Liquid"]], "footer": "", "data": [[["0.00489"], ["288.15"], ["101"], ["1.5032", "0.003"]], [["0.00489"], ["293.15"], ["101"], ["1.5016", "0.003"]], [["0.00489"], ["298.15"], ["101"], ["1.5001", "0.003"]], [["0.00489"], ["303.15"], ["101"], ["1.4986", "0.003"]], [["0.00489"], ["308.15"], ["101"], ["1.4966", "0.003"]], [["0.00489"], ["313.15"], ["101"], ["1.495", "0.003"]], [["0.00489"], ["318.15"], ["101"], ["1.4936", "0.003"]], [["0.00489"], ["323.15"], ["101"], ["1.4922", "0.003"]], [["0.00489"], ["328.15"], ["101"], ["1.4907", "0.003"]], [["0.00797"], ["288.15"], ["101"], ["1.5023", "0.003"]], [["0.00797"], ["293.15"], ["101"], ["1.5007", "0.003"]], [["0.00797"], ["298.15"], ["101"], ["1.4992", "0.003"]], [["0.00797"], ["303.15"], ["101"], ["1.4976", "0.003"]], [["0.00797"], ["308.15"], ["101"], ["1.4958", "0.003"]], [["0.00797"], ["313.15"], ["101"], ["1.4941", "0.003"]], [["0.00797"], ["318.15"], ["101"], ["1.4929", "0.003"]], [["0.00797"], ["323.15"], ["101"], ["1.4914", "0.003"]], [["0.00797"], ["328.15"], ["101"], ["1.4899", "0.003"]], [["0.01109"], ["288.15"], ["101"], ["1.5014", "0.003"]], [["0.01109"], ["293.15"], ["101"], ["1.4997", "0.003"]], [["0.01109"], ["298.15"], ["101"], ["1.4983", "0.003"]], [["0.01109"], ["303.15"], ["101"], ["1.4967", "0.003"]], [["0.01109"], ["308.15"], ["101"], ["1.4949", "0.003"]], [["0.01109"], ["313.15"], ["101"], ["1.4932", "0.003"]], [["0.01109"], ["318.15"], ["101"], ["1.492", "0.003"]], [["0.01109"], ["323.15"], ["101"], ["1.4906", "0.003"]], [["0.01109"], ["328.15"], ["101"], ["1.4891", "0.003"]], [["0.01419"], ["288.15"], ["101"], ["1.5005", "0.003"]], [["0.01419"], ["293.15"], ["101"], ["1.4988", "0.003"]], [["0.01419"], ["298.15"], ["101"], ["1.4973", "0.003"]], [["0.01419"], ["303.15"], ["101"], ["1.4958", "0.003"]], [["0.01419"], ["308.15"], ["101"], ["1.494", "0.003"]], [["0.01419"], ["313.15"], ["101"], ["1.4923", "0.003"]], [["0.01419"], ["318.15"], ["101"], ["1.4911", "0.003"]], [["0.01419"], ["323.15"], ["101"], ["1.4897", "0.003"]], [["0.01419"], ["328.15"], ["101"], ["1.4883", "0.003"]], [["0.01726"], ["288.15"], ["101"], ["1.4995", "0.003"]], [["0.01726"], ["293.15"], ["101"], ["1.4978", "0.003"]], [["0.01726"], ["298.15"], ["101"], ["1.4963", "0.003"]], [["0.01726"], ["303.15"], ["101"], ["1.4949", "0.003"]], [["0.01726"], ["308.15"], ["101"], ["1.4931", "0.003"]], [["0.01726"], ["313.15"], ["101"], ["1.4915", "0.003"]], [["0.01726"], ["318.15"], ["101"], ["1.4903", "0.003"]], [["0.01726"], ["323.15"], ["101"], ["1.489", "0.003"]], [["0.01726"], ["328.15"], ["101"], ["1.4876", "0.003"]]], "solvent": null, "expmeth": "Standard Abbe refractometry", "ref": {"full": "Zhao, Y.; Lv, J.; Liu, H.; Wu, J.; Tong, J. (2021) J. Mol. Liq. 336, 116094.", "title": "Study on the polarity and molar surface Gibbs energy of ether-based amino acid ionic liquids [COC4mim][Gly], [COC4mim][Ala] and [COC4mim][Thr]"}, "constr": [], "phases": ["Liquid"]}