{"expmeth": "minimum deviation method", "footer": "", "data": [[["316.157"], ["109"], ["632.8"], ["1.3558", "0.0002"]], [["317.033"], ["109"], ["632.8"], ["1.3558", "0.0002"]], [["317.826"], ["109"], ["632.8"], ["1.3558", "0.0002"]], [["318.513"], ["109"], ["632.8"], ["1.3557", "0.0002"]], [["319.099"], ["109"], ["632.8"], ["1.3558", "0.0002"]], [["319.574"], ["109"], ["632.8"], ["1.3558", "0.0002"]], [["320.048"], ["109"], ["632.8"], ["1.3559", "0.0002"]], [["320.549"], ["109"], ["632.8"], ["1.3561", "0.0002"]], [["321.051"], ["109"], ["632.8"], ["1.3562", "0.0002"]], [["321.493"], ["109"], ["632.8"], ["1.3564", "0.0002"]], [["321.837"], ["109"], ["632.8"], ["1.3565", "0.0002"]], [["322.149"], ["109"], ["632.8"], ["1.3567", "0.0002"]], [["322.45"], ["109"], ["632.8"], ["1.3568", "0.0002"]], [["322.728"], ["109"], ["632.8"], ["1.357", "0.0002"]], [["323.013"], ["109"], ["632.8"], ["1.3572", "0.0002"]], [["323.254"], ["109"], ["632.8"], ["1.3574", "0.0002"]], [["323.496"], ["109"], ["632.8"], ["1.3575", "0.0002"]], [["323.712"], ["109"], ["632.8"], ["1.3577", "0.0002"]], [["323.904"], ["109"], ["632.8"], ["1.358", "0.0002"]], [["324.104"], ["109"], ["632.8"], ["1.3583", "0.0002"]], [["324.275"], ["109"], ["632.8"], ["1.3586", "0.0003"]], [["324.423"], ["109"], ["632.8"], ["1.3589", "0.0003"]], [["324.548"], ["109"], ["632.8"], ["1.3592", "0.0003"]], [["324.674"], ["109"], ["632.8"], ["1.3595", "0.0003"]], [["324.774"], ["109"], ["632.8"], ["1.3597", "0.0003"]], [["324.849"], ["109"], ["632.8"], ["1.36", "0.0003"]], [["324.908"], ["109"], ["632.8"], ["1.3603", "0.0003"]], [["324.972"], ["109"], ["632.8"], ["1.3605", "0.0003"]], [["325.027"], ["109"], ["632.8"], ["1.3607", "0.0003"]], [["325.084"], ["109"], ["632.8"], ["1.3609", "0.0003"]], [["325.118"], ["109"], ["632.8"], ["1.3612", "0.0004"]], [["325.155"], ["109"], ["632.8"], ["1.3614", "0.0004"]], [["325.181"], ["109"], ["632.8"], ["1.3617", "0.0004"]], [["325.205"], ["109"], ["632.8"], ["1.3619", "0.0005"]], [["325.232"], ["109"], ["632.8"], ["1.3621", "0.0005"]], [["325.246"], ["109"], ["632.8"], ["1.3623", "0.0006"]], [["325.261"], ["109"], ["632.8"], ["1.3624", "0.0005"]], [["325.271"], ["109"], ["632.8"], ["1.3627", "0.0006"]], [["325.288"], ["109"], ["632.8"], ["1.363", "0.0009"]], [["325.302"], ["109"], ["632.8"], ["1.3631", "0.0007"]], [["325.31"], ["109"], ["632.8"], ["1.3633", "0.0008"]], [["325.316"], ["109"], ["632.8"], ["1.3635", "0.0008"]], [["325.322"], ["109"], ["632.8"], ["1.3636", "0.0007"]], [["325.326"], ["109"], ["632.8"], ["1.3639", "0.0009"]], [["325.333"], ["109"], ["632.8"], ["1.3641", "0.001"]]], "solvent": null, "dhead": [["Temperature, K", null], ["Pressure, kPa", null], ["Wavelength, A", "Liquid mixture 1"], ["Refractive index", "Liquid mixture 1"]], "title": "Refraction, surface tension, and speed of sound: Refractive index", "components": [{"sample": [["Source:", "commercial source"], ["Initial purification:", "stated by supplier"], ["Initial purity:", "99 mass %"], ["Final purification:", "Karl Fischer titration"], ["Final purity:", "0.0200 water mass %(dried in a desiccator;dried by vacuum heating)"]], "name": "1-butyl-3-methylimidazolium hexafluorophosphate", "formula": "C<SUB>8</SUB>H<SUB>15</SUB>F<SUB>6</SUB>N<SUB>2</SUB>P", "idout": "ABChJv", "mw": "284.19"}, {"sample": [["Source:", "commercial source"], ["Initial purification:", "stated by supplier"], ["Initial purity:", "99.8 mass %"], ["Final purification:", "Karl Fischer titration"], ["Final purity:", "0.0060 water mass %(molecular sieve treatment)"]], "mw": "46.07", "idout": "AAIsrh", "name": "ethanol", "formula": "C<SUB>2</SUB>H<SUB>6</SUB>O"}], "phases": ["Liquid mixture 1", "Liquid mixture 2"], "ref": {"title": "Liquid-liquid equilibrium and heat capacity measurements of the binary solution {ethanol + 1-butyl-3-methylimidazolium hexafluorophosphate}", "full": "Guo, Y.; Wang, X.; Tao, X.; Shen, W. (2017) J. Chem. Thermodyn. 115, 342-351."}, "constr": []}