{"components": [{"mw": "316.34", "idout": "ABIrOD", "name": "1-butylpyridinium bis(fluorosulfonyl)amide", "formula": "C<SUB>9</SUB>H<SUB>14</SUB>F<SUB>2</SUB>N<SUB>2</SUB>O<SUB>4</SUB>S<SUB>2</SUB>", "sample": [["Source:", "synthesized by the authors"], ["Purification:", "estimated by the compiler"], ["Purity:", "98 mass %"]]}], "title": "Refraction, surface tension, and speed of sound: Refractive index (Na D-line)", "dhead": [["Temperature, K", null], ["Pressure, kPa", null], ["Refractive index (Na D-line)", "Liquid"]], "data": [[["283.15"], ["101.325"], ["1.4757", "0.0006"]], [["288.15"], ["101.325"], ["1.4742", "0.0006"]], [["293.15"], ["101.325"], ["1.4727", "0.0006"]], [["298.15"], ["101.325"], ["1.4712", "0.0006"]], [["303.15"], ["101.325"], ["1.4698", "0.0006"]], [["308.15"], ["101.325"], ["1.4683", "0.0006"]], [["313.15"], ["101.325"], ["1.4668", "0.0006"]], [["318.15"], ["101.325"], ["1.4654", "0.0006"]], [["323.15"], ["101.325"], ["1.4639", "0.0006"]], [["328.15"], ["101.325"], ["1.4625", "0.0006"]], [["333.15"], ["101.325"], ["1.461", "0.0006"]], [["338.15"], ["101.325"], ["1.4596", "0.0006"]], [["343.15"], ["101.325"], ["1.4582", "0.0006"]], [["348.15"], ["101.325"], ["1.4568", "0.0006"]], [["353.15"], ["101.325"], ["1.4554", "0.0006"]]], "solvent": null, "footer": "", "expmeth": "Standard Abbe refractometry", "constr": [], "ref": {"full": "Seki, Shiro; Serizawa, Nobuyuki; Ono, Shimpei; Takei, Katsuhito; Hayamizu, Kikuko; Tsuzuki, Seiji; Umebayashi, Yasuhiro (2019) J. Chem. Eng. Data 64(2), 433-441.", "title": "Densities, Viscosities, and Refractive Indices of Binary Room-Temperature Ionic Liquids with Common Cations/Anions"}, "phases": ["Liquid"]}