{"ref": {"full": "Oriyomi, O.; Arumugam, V.; Moodley, K. G.; Redhi, G. G. (2020) Phys. Chem. Liq. 58(2), 246-262.", "title": "Thermophysical and thermodynamic properties of 1-ethyl-3-methylimidazolium ethylsulphate ionic liquid and its binary mixtures with pentanoic or 2-methylpropanoic acid at various temperatures"}, "constr": [], "phases": ["Liquid"], "title": "Refraction, surface tension, and speed of sound: Refractive index (Na D-line)", "components": [{"idout": "AAThEN", "mw": "102.13", "formula": "C<SUB>5</SUB>H<SUB>10</SUB>O<SUB>2</SUB>", "name": "pentanoic acid", "sample": [["Source:", "commercial source"], ["Initial purification:", "stated by supplier"], ["Initial purity:", "98 mass %"], ["Final purification:", "Karl Fischer titration"], ["Final purity:", "0.1 water mass %"]]}, {"sample": [["Source:", "synthesized by the authors"], ["Initial purification:", "stated by supplier"], ["Initial purity:", "99 mass %"], ["Final purification:", "Karl Fischer titration"], ["Final purity:", "0.03 water mass %(dried by vacuum heating;solvent extraction)"]], "name": "1-ethyl-3-methylimidazolium ethyl sulfate", "formula": "C<SUB>8</SUB>H<SUB>16</SUB>N<SUB>2</SUB>O<SUB>4</SUB>S", "mw": "236.29", "idout": "AAtWDT"}], "dhead": [["Temperature, K", null], ["Mole fraction of 1-ethyl-3-methylimidazolium ethyl sulfate", "Liquid"], ["Pressure, kPa", null], ["Refractive index (Na D-line)", "Liquid"]], "footer": "", "data": [[["288.15"], ["0"], ["101.3"], ["1.4106", "0.008"]], [["288.15"], ["0.0471"], ["101.3"], ["1.4175", "0.008"]], [["288.15"], ["0.074"], ["101.3"], ["1.4211", "0.008"]], [["288.15"], ["0.1035"], ["101.3"], ["1.4247", "0.008"]], [["288.15"], ["0.2095"], ["101.3"], ["1.4362", "0.008"]], [["288.15"], ["0.3059"], ["101.3"], ["1.4439", "0.008"]], [["288.15"], ["0.405"], ["101.3"], ["1.4502", "0.008"]], [["288.15"], ["0.505"], ["101.3"], ["1.4562", "0.008"]], [["288.15"], ["0.6053"], ["101.3"], ["1.4616", "0.008"]], [["288.15"], ["0.7025"], ["101.3"], ["1.4662", "0.008"]], [["288.15"], ["0.8051"], ["101.3"], ["1.4711", "0.008"]], [["288.15"], ["0.9026"], ["101.3"], ["1.4744", "0.008"]], [["288.15"], ["1"], ["101.3"], ["1.4767", "0.008"]], [["293.15"], ["0"], ["101.3"], ["1.4088", "0.008"]], [["293.15"], ["0.0471"], ["101.3"], ["1.4166", "0.008"]], [["293.15"], ["0.074"], ["101.3"], ["1.4194", "0.008"]], [["293.15"], ["0.1035"], ["101.3"], ["1.423", "0.008"]], [["293.15"], ["0.2095"], ["101.3"], ["1.4346", "0.008"]], [["293.15"], ["0.3059"], ["101.3"], ["1.4424", "0.008"]], [["293.15"], ["0.405"], ["101.3"], ["1.4487", "0.008"]], [["293.15"], ["0.505"], ["101.3"], ["1.4546", "0.008"]], [["293.15"], ["0.6053"], ["101.3"], ["1.4602", "0.008"]], [["293.15"], ["0.7025"], ["101.3"], ["1.4646", "0.008"]], [["293.15"], ["0.8051"], ["101.3"], ["1.4695", "0.008"]], [["293.15"], ["0.9026"], ["101.3"], ["1.4728", "0.008"]], [["293.15"], ["1"], ["101.3"], ["1.475", "0.008"]], [["298.15"], ["0"], ["101.3"], ["1.4067", "0.008"]], [["298.15"], ["0.0471"], ["101.3"], ["1.4146", "0.008"]], [["298.15"], ["0.074"], ["101.3"], ["1.4176", "0.008"]], [["298.15"], ["0.1035"], ["101.3"], ["1.4212", "0.008"]], [["298.15"], ["0.2095"], ["101.3"], ["1.4329", "0.008"]], [["298.15"], ["0.3059"], ["101.3"], ["1.4408", "0.008"]], [["298.15"], ["0.405"], ["101.3"], ["1.4468", "0.008"]], [["298.15"], ["0.505"], ["101.3"], ["1.4532", "0.008"]], [["298.15"], ["0.6053"], ["101.3"], ["1.4588", "0.008"]], [["298.15"], ["0.7025"], ["101.3"], ["1.4633", "0.008"]], [["298.15"], ["0.8051"], ["101.3"], ["1.4684", "0.008"]], [["298.15"], ["0.9026"], ["101.3"], ["1.4712", "0.008"]], [["298.15"], ["1"], ["101.3"], ["1.474", "0.008"]], [["303.15"], ["0"], ["101.3"], ["1.4048", "0.008"]], [["303.15"], ["0.0471"], ["101.3"], ["1.4127", "0.008"]], [["303.15"], ["0.074"], ["101.3"], ["1.4158", "0.008"]], [["303.15"], ["0.1035"], ["101.3"], ["1.4195", "0.008"]], [["303.15"], ["0.2095"], ["101.3"], ["1.4314", "0.008"]], [["303.15"], ["0.3059"], ["101.3"], ["1.4392", "0.008"]], [["303.15"], ["0.405"], ["101.3"], ["1.4457", "0.008"]], [["303.15"], ["0.505"], ["101.3"], ["1.4517", "0.008"]], [["303.15"], ["0.6053"], ["101.3"], ["1.4572", "0.008"]], [["303.15"], ["0.7025"], ["101.3"], ["1.4614", "0.008"]], [["303.15"], ["0.8051"], ["101.3"], ["1.4667", "0.008"]], [["303.15"], ["0.9026"], ["101.3"], ["1.4691", "0.008"]], [["303.15"], ["1"], ["101.3"], ["1.4716", "0.008"]], [["308.15"], ["0"], ["101.3"], ["1.4027", "0.008"]], [["308.15"], ["0.0471"], ["101.3"], ["1.4109", "0.008"]], [["308.15"], ["0.074"], ["101.3"], ["1.4139", "0.008"]], [["308.15"], ["0.1035"], ["101.3"], ["1.4177", "0.008"]], [["308.15"], ["0.2095"], ["101.3"], ["1.4295", "0.008"]], [["308.15"], ["0.3059"], ["101.3"], ["1.4377", "0.008"]], [["308.15"], ["0.405"], ["101.3"], ["1.4442", "0.008"]], [["308.15"], ["0.505"], ["101.3"], ["1.4501", "0.008"]], [["308.15"], ["0.6053"], ["101.3"], ["1.4556", "0.008"]], [["308.15"], ["0.7025"], ["101.3"], ["1.4595", "0.008"]], [["308.15"], ["0.8051"], ["101.3"], ["1.4649", "0.008"]], [["308.15"], ["0.9026"], ["101.3"], ["1.4673", "0.008"]], [["308.15"], ["1"], ["101.3"], ["1.4706", "0.008"]], [["313.15"], ["0"], ["101.3"], ["1.4007", "0.008"]], [["313.15"], ["0.0471"], ["101.3"], ["1.4092", "0.008"]], [["313.15"], ["0.074"], ["101.3"], ["1.412", "0.008"]], [["313.15"], ["0.1035"], ["101.3"], ["1.4161", "0.008"]], [["313.15"], ["0.2095"], ["101.3"], ["1.4276", "0.008"]], [["313.15"], ["0.3059"], ["101.3"], ["1.436", "0.008"]], [["313.15"], ["0.405"], ["101.3"], ["1.4422", "0.008"]], [["313.15"], ["0.505"], ["101.3"], ["1.4482", "0.008"]], [["313.15"], ["0.6053"], ["101.3"], ["1.4536", "0.008"]], [["313.15"], ["0.7025"], ["101.3"], ["1.4579", "0.008"]], [["313.15"], ["0.8051"], ["101.3"], ["1.4628", "0.008"]], [["313.15"], ["0.9026"], ["101.3"], ["1.4651", "0.008"]], [["313.15"], ["1"], ["101.3"], ["1.4685", "0.008"]]], "solvent": null, "expmeth": "Standard Abbe refractometry"}