{"ref": {"full": "Corderi, S.; Gonzalez, B. (2012) J. Chem. Thermodyn. 55, 138-143.", "title": "Ethanol extraction from its azeotropic mixture with hexane employing different ionic liquids as solvents"}, "constr": [], "phases": ["Liquid"], "components": [{"sample": [["Source:", "commercial source"], ["Purification:", "stated by supplier"], ["Purity:", "99.9 mol %"]], "mw": "46.07", "idout": "AAIsrh", "name": "ethanol", "formula": "C<SUB>2</SUB>H<SUB>6</SUB>O"}, {"idout": "AAQdzy", "mw": "86.18", "formula": "C<SUB>6</SUB>H<SUB>14</SUB>", "name": "hexane", "sample": [["Source:", "commercial source"], ["Purification:", "stated by supplier"], ["Purity:", "99 mol %"]]}, {"idout": "ABchwx", "mw": "419.36", "formula": "C<SUB>10</SUB>H<SUB>15</SUB>F<SUB>6</SUB>N<SUB>3</SUB>O<SUB>4</SUB>S<SUB>2</SUB>", "name": "1-butyl-3-methylimidazolium bis(trifluoromethylsulfonyl)imide", "sample": [["Source:", "commercial source"], ["Initial purification:", "stated by supplier"], ["Initial purity:", "99 mol %"], ["Final purification:", "Karl Fischer titration;chemical analysis"], ["Final purity:", "0.001 water mass %;0.009 halide impurity mass %(dried by vacuum heating)"]]}], "title": "Refraction, surface tension, and speed of sound: Refractive index (Na D-line)", "dhead": [["Weight fraction of hexane", "Liquid"], ["Weight fraction of ethanol", "Liquid"], ["Pressure, kPa", null], ["Temperature, K", null], ["Refractive index (Na D-line)", "Liquid"]], "data": [[["0"], ["0"], ["101"], ["313.15"], ["1.42437", "0.00037"]], [["0"], ["0.008"], ["101"], ["313.15"], ["1.42305", "0.00047"]], [["0"], ["0.015"], ["101"], ["313.15"], ["1.42222", "0.00046"]], [["0"], ["0.032"], ["101"], ["313.15"], ["1.41981", "0.00045"]], [["0"], ["0.084"], ["101"], ["313.15"], ["1.41301", "0.00043"]], [["0"], ["0.156"], ["101"], ["313.15"], ["1.40517", "0.00041"]], [["0"], ["0.202"], ["101"], ["313.15"], ["1.40056", "0.00039"]], [["0"], ["0.385"], ["101"], ["313.15"], ["1.38611", "0.00036"]], [["0"], ["0.48"], ["101"], ["313.15"], ["1.37983", "0.00036"]], [["0"], ["1"], ["101"], ["313.15"], ["1.35309", "0.00031"]], [["0.013"], ["0.095"], ["101"], ["313.15"], ["1.4113", "0.00043"]], [["0.015"], ["0.194"], ["101"], ["313.15"], ["1.40135", "0.0004"]], [["0.024"], ["0.29"], ["101"], ["313.15"], ["1.39254", "0.0004"]], [["0.026"], ["0.383"], ["101"], ["313.15"], ["1.38555", "0.00037"]], [["0.034"], ["0.48"], ["101"], ["313.15"], ["1.37881", "0.00036"]], [["0.046"], ["0.568"], ["101"], ["313.15"], ["1.373", "0.00037"]], [["0.048"], ["0.283"], ["101"], ["313.15"], ["1.39185", "0.00039"]], [["0.048"], ["0.668"], ["101"], ["313.15"], ["1.36723", "0.00035"]], [["0.051"], ["0.762"], ["101"], ["313.15"], ["1.36226", "0.00034"]], [["0.053"], ["0.852"], ["101"], ["313.15"], ["1.35784", "0.00034"]], [["0.068"], ["0.367"], ["101"], ["313.15"], ["1.38478", "0.00038"]], [["0.072"], ["0.462"], ["101"], ["313.15"], ["1.3779", "0.00038"]], [["0.1"], ["0.632"], ["101"], ["313.15"], ["1.36675", "0.00035"]], [["0.102"], ["0.353"], ["101"], ["313.15"], ["1.3839", "0.00038"]], [["0.104"], ["0.533"], ["101"], ["313.15"], ["1.37193", "0.00037"]], [["0.104"], ["0.72"], ["101"], ["313.15"], ["1.36207", "0.00034"]], [["0.109"], ["0.839"], ["101"], ["313.15"], ["1.35621", "0.00034"]], [["0.12"], ["0.438"], ["101"], ["313.15"], ["1.3775", "0.00038"]], [["0.159"], ["0.757"], ["101"], ["313.15"], ["1.35805", "0.00034"]], [["0.162"], ["0.499"], ["101"], ["313.15"], ["1.37158", "0.00037"]], [["0.164"], ["0.416"], ["101"], ["313.15"], ["1.37649", "0.00037"]], [["0.167"], ["0.39"], ["101"], ["313.15"], ["1.37859", "0.00039"]], [["0.196"], ["0.564"], ["101"], ["313.15"], ["1.36631", "0.00035"]], [["0.201"], ["0.641"], ["101"], ["313.15"], ["1.36186", "0.00035"]], [["0.221"], ["0.733"], ["101"], ["313.15"], ["1.35664", "0.00034"]], [["0.224"], ["0.462"], ["101"], ["313.15"], ["1.3708", "0.00037"]], [["0.273"], ["0.51"], ["101"], ["313.15"], ["1.36534", "0.00036"]], [["0.276"], ["0.651"], ["101"], ["313.15"], ["1.35842", "0.00035"]], [["0.312"], ["0.552"], ["101"], ["313.15"], ["1.36169", "0.00035"]], [["0.326"], ["0.635"], ["101"], ["313.15"], ["1.35719", "0.00035"]], [["0.34"], ["0.463"], ["101"], ["313.15"], ["1.36509", "0.00036"]], [["0.377"], ["0.561"], ["101"], ["313.15"], ["1.35884", "0.00035"]], [["0.393"], ["0.487"], ["101"], ["313.15"], ["1.36164", "0.00035"]], [["0.429"], ["0.538"], ["101"], ["313.15"], ["1.35788", "0.00035"]], [["0.45"], ["0.441"], ["101"], ["313.15"], ["1.36157", "0.00036"]], [["0.48"], ["0.468"], ["101"], ["313.15"], ["1.35933", "0.00035"]], [["0.528"], ["0.444"], ["101"], ["313.15"], ["1.3585", "0.00036"]], [["0.559"], ["0.397"], ["101"], ["313.15"], ["1.35966", "0.00036"]], [["0.624"], ["0.354"], ["101"], ["313.15"], ["1.3593", "0.00035"]], [["0.675"], ["0.306"], ["101"], ["313.15"], ["1.35956", "0.00038"]]], "solvent": null, "footer": "", "expmeth": "Standard Abbe refractometry"}