{"ref": {"full": "Yu, Z.; Gao, H.; Wang, H.; Chen, L. (2011) J. Chem. Eng. Data 56(6), 2877-2883.", "title": "Densities, Viscosities, and Refractive Properties of the Binary Mixtures of the Amino Acid Ionic Liquid [bmim][Ala] with Methanol or Benzylalcohol at T = (298.15 to 313.15) K"}, "constr": [], "phases": ["Liquid"], "title": "Refraction, surface tension, and speed of sound: Refractive index (Na D-line)", "components": [{"sample": [["Source:", "commercial source"], ["Initial purification:", "stated by supplier"], ["Initial purity:", "99 mass %"], ["Final purification:", "gas chromatography"], ["Final purity:", "99 mol %(fractional distillation)"]], "mw": "32.04", "idout": "AAGIBL", "name": "methanol", "formula": "CH<SUB>4</SUB>O"}, {"idout": "AArlzo", "mw": "227.31", "formula": "C<SUB>11</SUB>H<SUB>21</SUB>N<SUB>3</SUB>O<SUB>2</SUB>", "name": "3-butyl-1-methyl-1H-imidazolium L-alaninate", "sample": [["Source:", "synthesized by the authors"], ["Purification:", "NMR (proton);Karl Fischer titration"], ["Purity:", "99 mol %;0.0001 water mass %"]]}], "dhead": [["Temperature, K", null], ["Mole fraction of 3-butyl-1-methyl-1H-imidazolium L-alaninate", "Liquid"], ["Pressure, kPa", null], ["Refractive index (Na D-line)", "Liquid"]], "footer": "", "data": [[["298.15"], ["0.0986"], ["101"], ["1.3952", "0.0007"]], [["298.15"], ["0.2015"], ["101"], ["1.438", "0.0007"]], [["298.15"], ["0.2837"], ["101"], ["1.4595", "0.0007"]], [["298.15"], ["0.3985"], ["101"], ["1.4787", "0.0007"]], [["298.15"], ["0.5105"], ["101"], ["1.4914", "0.0007"]], [["298.15"], ["0.6035"], ["101"], ["1.4994", "0.0007"]], [["298.15"], ["0.7011"], ["101"], ["1.5058", "0.0007"]], [["298.15"], ["0.8152"], ["101"], ["1.5111", "0.0007"]], [["298.15"], ["0.9139"], ["101"], ["1.5147", "0.0007"]], [["303.15"], ["0.0986"], ["101"], ["1.3926", "0.0007"]], [["303.15"], ["0.2015"], ["101"], ["1.435", "0.0007"]], [["303.15"], ["0.2837"], ["101"], ["1.4564", "0.0007"]], [["303.15"], ["0.3985"], ["101"], ["1.4755", "0.0007"]], [["303.15"], ["0.5105"], ["101"], ["1.4883", "0.0007"]], [["303.15"], ["0.6035"], ["101"], ["1.4964", "0.0007"]], [["303.15"], ["0.7011"], ["101"], ["1.5029", "0.0007"]], [["303.15"], ["0.8152"], ["101"], ["1.5087", "0.0007"]], [["303.15"], ["0.9139"], ["101"], ["1.5126", "0.0007"]], [["308.15"], ["0.0986"], ["101"], ["1.3901", "0.0007"]], [["308.15"], ["0.2015"], ["101"], ["1.4323", "0.0007"]], [["308.15"], ["0.2837"], ["101"], ["1.4533", "0.0007"]], [["308.15"], ["0.3985"], ["101"], ["1.4723", "0.0007"]], [["308.15"], ["0.5105"], ["101"], ["1.485", "0.0007"]], [["308.15"], ["0.6035"], ["101"], ["1.493", "0.0007"]], [["308.15"], ["0.7011"], ["101"], ["1.5", "0.0007"]], [["308.15"], ["0.8152"], ["101"], ["1.5059", "0.0007"]], [["308.15"], ["0.9139"], ["101"], ["1.5105", "0.0007"]], [["313.15"], ["0.0986"], ["101"], ["1.3881", "0.0007"]], [["313.15"], ["0.2015"], ["101"], ["1.4297", "0.0007"]], [["313.15"], ["0.2837"], ["101"], ["1.4502", "0.0007"]], [["313.15"], ["0.3985"], ["101"], ["1.4692", "0.0007"]], [["313.15"], ["0.5105"], ["101"], ["1.4817", "0.0007"]], [["313.15"], ["0.6035"], ["101"], ["1.4898", "0.0007"]], [["313.15"], ["0.7011"], ["101"], ["1.497", "0.0007"]], [["313.15"], ["0.8152"], ["101"], ["1.5034", "0.0007"]], [["313.15"], ["0.9139"], ["101"], ["1.5082", "0.0007"]]], "solvent": null, "expmeth": "Standard Abbe refractometry"}