{"constr": [], "ref": {"full": "Umapathi, R.; Attri, P.; Venkatesu, P. (2014) J. Phys. Chem. B 118, 5971-5982.", "title": "Thermophysical Properties of Aqueous Solution of Ammonium- Based Ionic Liquids"}, "phases": ["Liquid"], "components": [{"name": "triethylammonium acetate", "formula": "C<SUB>8</SUB>H<SUB>19</SUB>NO<SUB>2</SUB>", "idout": "AAfApq", "mw": "161.25", "sample": [["Source:", "synthesized by the authors"], ["Initial purification:", "not known"], ["Initial purity:", "99 mass %"], ["Final purification:", "Karl Fischer titration"], ["Final purity:", "0.0070 water mass %"]]}, {"idout": "AADYJk", "mw": "18.02", "formula": "H<SUB>2</SUB>O", "name": "water", "sample": [["Source:", "commercial source"], ["Purification:", "estimated by the compiler"], ["Purity:", "99.8 mass %"]]}], "title": "Refraction, surface tension, and speed of sound: Refractive index (Na D-line)", "dhead": [["Mole fraction of triethylammonium acetate", "Liquid"], ["Pressure, kPa", null], ["Temperature, K", null], ["Refractive index (Na D-line)", "Liquid"]], "data": [[["0"], ["101"], ["298.15"], ["1.33", "0.001"]], [["0.0288"], ["101"], ["298.15"], ["1.355", "0.001"]], [["0.042"], ["101"], ["298.15"], ["1.363", "0.001"]], [["0.0638"], ["101"], ["298.15"], ["1.377", "0.001"]], [["0.0847"], ["101"], ["298.15"], ["1.39", "0.001"]], [["0.1016"], ["101"], ["298.15"], ["1.398", "0.001"]], [["0.1457"], ["101"], ["298.15"], ["1.418", "0.001"]], [["0.2125"], ["101"], ["298.15"], ["1.443", "0.001"]], [["0.2349"], ["101"], ["298.15"], ["1.449", "0.001"]], [["0.2904"], ["101"], ["298.15"], ["1.462", "0.001"]], [["0.3254"], ["101"], ["298.15"], ["1.468", "0.001"]], [["0.367"], ["101"], ["298.15"], ["1.473", "0.001"]], [["0.4174"], ["101"], ["298.15"], ["1.478", "0.001"]], [["0.5162"], ["101"], ["298.15"], ["1.483", "0.001"]], [["0.5579"], ["101"], ["298.15"], ["1.481", "0.001"]], [["0.6055"], ["101"], ["298.15"], ["1.483", "0.001"]], [["0.6604"], ["101"], ["298.15"], ["1.481", "0.001"]], [["0.7243"], ["101"], ["298.15"], ["1.48", "0.001"]], [["0.7996"], ["101"], ["298.15"], ["1.481", "0.001"]], [["0.8899"], ["101"], ["298.15"], ["1.487", "0.001"]], [["1"], ["101"], ["298.15"], ["1.501", "0.001"]]], "solvent": null, "footer": "", "expmeth": "Standard Abbe refractometry"}