{"phases": ["Liquid mixture 2", "Liquid mixture 1"], "ref": {"title": "Liquid-liquid phase equilibrium and heat capacity of binary solution {2-propanol + 1-octyl-3-methylimidazolium hexafluorophosphate}", "full": "Guo, Y.; Zhang, X.; Xu, C.; Shen, W. (2017) J. Chem. Thermodyn. 105, 434-442."}, "constr": [], "footer": "", "data": [[["300.831"], ["93"], ["632.8"], ["1.4011", "0.0003"]], [["301.881"], ["93"], ["632.8"], ["1.4001", "0.0003"]], [["302.95"], ["93"], ["632.8"], ["1.399", "0.0003"]], [["303.825"], ["93"], ["632.8"], ["1.3981", "0.0003"]], [["304.665"], ["93"], ["632.8"], ["1.3971", "0.0003"]], [["305.283"], ["93"], ["632.8"], ["1.3964", "0.0003"]], [["305.857"], ["93"], ["632.8"], ["1.3956", "0.0003"]], [["306.362"], ["93"], ["632.8"], ["1.3949", "0.0003"]], [["306.801"], ["93"], ["632.8"], ["1.3943", "0.0003"]], [["307.182"], ["93"], ["632.8"], ["1.3938", "0.0003"]], [["307.516"], ["93"], ["632.8"], ["1.3932", "0.0003"]], [["307.818"], ["93"], ["632.8"], ["1.3927", "0.0003"]], [["308.085"], ["93"], ["632.8"], ["1.3922", "0.0003"]], [["308.326"], ["93"], ["632.8"], ["1.3917", "0.0003"]], [["308.542"], ["93"], ["632.8"], ["1.3913", "0.0003"]], [["308.75"], ["93"], ["632.8"], ["1.3909", "0.0003"]], [["308.944"], ["93"], ["632.8"], ["1.3904", "0.0003"]], [["309.127"], ["93"], ["632.8"], ["1.39", "0.0003"]], [["309.3"], ["93"], ["632.8"], ["1.3895", "0.0003"]], [["309.453"], ["93"], ["632.8"], ["1.3891", "0.0003"]], [["309.597"], ["93"], ["632.8"], ["1.3887", "0.0003"]], [["309.72"], ["93"], ["632.8"], ["1.3882", "0.0003"]], [["309.838"], ["93"], ["632.8"], ["1.3879", "0.0003"]], [["309.937"], ["93"], ["632.8"], ["1.3874", "0.0003"]], [["310.026"], ["93"], ["632.8"], ["1.387", "0.0003"]], [["310.099"], ["93"], ["632.8"], ["1.3867", "0.0003"]], [["310.158"], ["93"], ["632.8"], ["1.3864", "0.0003"]], [["310.199"], ["93"], ["632.8"], ["1.3861", "0.0004"]], [["310.24"], ["93"], ["632.8"], ["1.3859", "0.0004"]], [["310.275"], ["93"], ["632.8"], ["1.3856", "0.0004"]], [["310.302"], ["93"], ["632.8"], ["1.3853", "0.0004"]], [["310.331"], ["93"], ["632.8"], ["1.3851", "0.0005"]], [["310.354"], ["93"], ["632.8"], ["1.3849", "0.0005"]], [["310.377"], ["93"], ["632.8"], ["1.3846", "0.0005"]], [["310.391"], ["93"], ["632.8"], ["1.3845", "0.0005"]], [["310.406"], ["93"], ["632.8"], ["1.3842", "0.0007"]], [["310.419"], ["93"], ["632.8"], ["1.3841", "0.0009"]], [["310.427"], ["93"], ["632.8"], ["1.3839", "0.001"]], [["310.438"], ["93"], ["632.8"], ["1.3838", "0.0006"]], [["310.442"], ["93"], ["632.8"], ["1.3835", "0.0008"]], [["310.449"], ["93"], ["632.8"], ["1.3833", "0.0009"]], [["310.453"], ["93"], ["632.8"], ["1.3831", "0.001"]], [["310.458"], ["93"], ["632.8"], ["1.3829", "0.001"]], [["310.462"], ["93"], ["632.8"], ["1.3828", "0.0012"]], [["310.467"], ["93"], ["632.8"], ["1.3824", "0.0015"]]], "solvent": null, "expmeth": "minimum deviation method", "title": "Refraction, surface tension, and speed of sound: Refractive index", "components": [{"formula": "C<SUB>3</SUB>H<SUB>8</SUB>O", "name": "propan-2-ol", "idout": "AALcwx", "mw": "60.10", "sample": [["Source:", "commercial source"], ["Initial purification:", "stated by supplier"], ["Initial purity:", "99.5 mass %"], ["Final purification:", "Karl Fischer titration"], ["Final purity:", "0.0064 water mass %(molecular sieve treatment)"]]}, {"mw": "340.29", "idout": "ABNWoR", "formula": "C<SUB>12</SUB>H<SUB>23</SUB>F<SUB>6</SUB>N<SUB>2</SUB>P", "name": "1-octyl-3-methylimidazolium hexafluorophosphate", "sample": [["Source:", "commercial source"], ["Initial purification:", "stated by supplier"], ["Initial purity:", "99 mass %"], ["Final purification:", "Karl Fischer titration"], ["Final purity:", "0.0164 water mass %(dried in a desiccator;dried by vacuum heating)"]]}], "dhead": [["Temperature, K", null], ["Pressure, kPa", null], ["Wavelength, A", "Liquid mixture 2"], ["Refractive index", "Liquid mixture 2"]]}