{"expmeth": "Standard Abbe refractometry", "data": [[["0"], ["100"], ["298.15"], ["1.3763", "0.002"]], [["0.061"], ["100"], ["298.15"], ["1.3783", "0.002"]], [["0.103"], ["100"], ["298.15"], ["1.38", "0.002"]], [["0.203"], ["100"], ["298.15"], ["1.3841", "0.002"]], [["0.316"], ["100"], ["298.15"], ["1.39", "0.002"]], [["0.403"], ["100"], ["298.15"], ["1.3945", "0.002"]], [["0.499"], ["100"], ["298.15"], ["1.4", "0.002"]], [["0.512"], ["100"], ["298.15"], ["1.4012", "0.002"]], [["0.599"], ["100"], ["298.15"], ["1.4054", "0.002"]], [["0.695"], ["100"], ["298.15"], ["1.4112", "0.0021"]], [["0.796"], ["100"], ["298.15"], ["1.4187", "0.0021"]], [["0.899"], ["100"], ["298.15"], ["1.4257", "0.0021"]], [["1"], ["100"], ["298.15"], ["1.4337", "0.0021"]]], "solvent": null, "footer": "", "dhead": [["Weight fraction of 1-butyl-1-methylpyrrolidinium trifluoromethanesulfonate", "Liquid"], ["Pressure, kPa", null], ["Temperature, K", null], ["Refractive index (Na D-line)", "Liquid"]], "components": [{"mw": "60.10", "idout": "AALcwx", "formula": "C<SUB>3</SUB>H<SUB>8</SUB>O", "name": "propan-2-ol", "sample": [["Source:", "commercial source"], ["Purification:", "stated by supplier"], ["Purity:", "99 mass %"]]}, {"sample": [["Source:", "commercial source"], ["Initial purification:", "stated by supplier"], ["Initial purity:", "98 mass %"], ["Final purification:", "Karl Fischer titration"], ["Final purity:", "0.01 water mass %"]], "mw": "291.33", "idout": "ABEBwg", "name": "1-butyl-1-methylpyrrolidinium trifluoromethanesulfonate", "formula": "C<SUB>10</SUB>H<SUB>20</SUB>F<SUB>3</SUB>NO<SUB>3</SUB>S"}], "title": "Refraction, surface tension, and speed of sound: Refractive index (Na D-line)", "phases": ["Liquid"], "constr": [], "ref": {"title": "Measurement and correlation of isobaric binary vapor-liquid equilibria for water and 2-propanol each with 1-butyl-1-methypyrrolidinium chloride and 1-butyl-1-methylpyrrolidinium trifluoromethanesulfonate", "full": "Mohammed, F.; Qasim, M.; Aidan, A. A.; Darwish, N. A. (2018) J. Mol. Liq. 264, 534-542."}}