{"title": "Refraction, surface tension, and speed of sound: Refractive index", "components": [{"name": "1-butyl-3-methylimidazolium bis(trifluoromethylsulfonyl)imide", "formula": "C<SUB>10</SUB>H<SUB>15</SUB>F<SUB>6</SUB>N<SUB>3</SUB>O<SUB>4</SUB>S<SUB>2</SUB>", "idout": "ABchwx", "mw": "419.36", "sample": [["Source:", "commercial source"], ["Purity analysis:", "dried by vacuum heating"]]}], "dhead": [["Temperature, K", null], ["Pressure, kPa", null], ["Wavelength, A", "Liquid"], ["Refractive index", "Liquid"]], "footer": "", "solvent": null, "data": [[["298.15"], ["100"], ["430.1"], ["1.437", "0.0012"]], [["298.15"], ["100"], ["486.1"], ["1.432", "0.0012"]], [["298.15"], ["100"], ["589.6"], ["1.4265", "0.0012"]], [["298.15"], ["100"], ["656.3"], ["1.4242", "0.0012"]], [["298.15"], ["100"], ["822.7"], ["1.4208", "0.0012"]], [["303.15"], ["100"], ["430.1"], ["1.4354", "0.0012"]], [["303.15"], ["100"], ["486.1"], ["1.4305", "0.0012"]], [["303.15"], ["100"], ["589.6"], ["1.425", "0.0012"]], [["303.15"], ["100"], ["656.3"], ["1.4228", "0.0012"]], [["303.15"], ["100"], ["822.7"], ["1.4194", "0.0012"]], [["308.15"], ["100"], ["430.1"], ["1.4338", "0.0012"]], [["308.15"], ["100"], ["486.1"], ["1.4289", "0.0012"]], [["308.15"], ["100"], ["589.6"], ["1.4234", "0.0012"]], [["308.15"], ["100"], ["656.3"], ["1.4212", "0.0012"]], [["308.15"], ["100"], ["822.7"], ["1.4179", "0.0012"]], [["313.15"], ["100"], ["430.1"], ["1.4324", "0.0012"]], [["313.15"], ["100"], ["486.1"], ["1.4274", "0.0012"]], [["313.15"], ["100"], ["589.6"], ["1.4219", "0.0012"]], [["313.15"], ["100"], ["656.3"], ["1.4197", "0.0012"]], [["313.15"], ["100"], ["822.7"], ["1.4163", "0.0012"]], [["318.15"], ["100"], ["430.1"], ["1.4308", "0.0012"]], [["318.15"], ["100"], ["486.1"], ["1.4258", "0.0012"]], [["318.15"], ["100"], ["589.6"], ["1.4204", "0.0012"]], [["318.15"], ["100"], ["656.3"], ["1.4182", "0.0012"]], [["318.15"], ["100"], ["822.7"], ["1.4149", "0.0012"]], [["323.15"], ["100"], ["430.1"], ["1.429", "0.0012"]], [["323.15"], ["100"], ["486.1"], ["1.4241", "0.0012"]], [["323.15"], ["100"], ["589.6"], ["1.4188", "0.0012"]], [["323.15"], ["100"], ["656.3"], ["1.4167", "0.0012"]], [["323.15"], ["100"], ["822.7"], ["1.4136", "0.0012"]]], "expmeth": "Interferometry", "ref": {"full": "Arosa, Y.; Algnamat, B. S.; Rodriguez, C. D.; Lago, E. L.; Varela, L. M.; de la Fuente, R. (2018) J. Phys. Chem. C 122(51), 29470-29478.", "title": "Modeling the Temperature-Dependent Material Dispersion of Imidazolium-Based Ionic Liquids in the VIS-NIR"}, "constr": [], "phases": ["Liquid"]}