{"constr": [], "ref": {"full": "Shekaari, H.; Jebali, F. (2010) J. Solution Chem. 39, 1409.", "title": "Solute Solvent Interactions of Amino Acids in Aqueous  1-Propyl-3-Methylimidazolium Bromide Ionic Liquid  Solutions at 298.15 K"}, "phases": ["Liquid"], "title": "Refraction, surface tension, and speed of sound: Refractive index (Na D-line)", "components": [{"idout": "AARGJq", "mw": "89.09", "formula": "C<SUB>3</SUB>H<SUB>7</SUB>NO<SUB>2</SUB>", "name": "(S)-2-aminopropanoic acid", "sample": [["Source:", "commercial source"], ["Purification:", "stated by supplier"], ["Purity:", "99 mol %"]]}, {"idout": "AADYJk", "mw": "18.02", "formula": "H<SUB>2</SUB>O", "name": "water", "sample": [["Source:", "commercial source"], ["Purification:", "estimated by the compiler"], ["Purity:", "99.9 mol %(fractional distillation)"]]}, {"mw": "205.10", "idout": "AAnWVs", "formula": "C<SUB>7</SUB>H<SUB>13</SUB>BrN<SUB>2</SUB>", "name": "1-methyl-3-propylimidazolium bromide", "sample": [["Source:", "synthesized by the authors"], ["Purification:", "NMR (proton);Karl Fischer titration"], ["Purity:", "99 mass %;0.02 water mass %(dried by vacuum heating;fractional crystallization)"]]}], "dhead": [["MolaLity of 1-methyl-3-propylimidazolium bromide, mol/kg", "Liquid"], ["MolaLity of (S)-2-aminopropanoic acid, mol/kg", "Liquid"], ["Temperature, K", null], ["Pressure, kPa", null], ["Refractive index (Na D-line)", "Liquid"]], "footer": "", "data": [[["0"], ["0"], ["298.15"], ["101.3"], ["1.3325", "0.0004"]], [["0"], ["0.0533"], ["298.15"], ["101.3"], ["1.3326", "0.0004"]], [["0"], ["0.091"], ["298.15"], ["101.3"], ["1.333", "0.0004"]], [["0"], ["0.1496"], ["298.15"], ["101.3"], ["1.3337", "0.0004"]], [["0"], ["0.1913"], ["298.15"], ["101.3"], ["1.3342", "0.0004"]], [["0"], ["0.2516"], ["298.15"], ["101.3"], ["1.335", "0.0004"]], [["0"], ["0.2926"], ["298.15"], ["101.3"], ["1.3355", "0.0004"]], [["0"], ["0.3514"], ["298.15"], ["101.3"], ["1.3362", "0.0004"]], [["0"], ["0.3799"], ["298.15"], ["101.3"], ["1.3365", "0.0004"]], [["0"], ["0.4471"], ["298.15"], ["101.3"], ["1.3374", "0.0004"]], [["0"], ["0.4827"], ["298.15"], ["101.3"], ["1.3378", "0.0004"]], [["0.152"], ["0"], ["298.15"], ["101.3"], ["1.336", "0.0004"]], [["0.152"], ["0.0575"], ["298.15"], ["101.3"], ["1.3364", "0.0004"]], [["0.152"], ["0.098"], ["298.15"], ["101.3"], ["1.3372", "0.0004"]], [["0.152"], ["0.146"], ["298.15"], ["101.3"], ["1.3379", "0.0004"]], [["0.152"], ["0.1996"], ["298.15"], ["101.3"], ["1.3385", "0.0004"]], [["0.152"], ["0.2435"], ["298.15"], ["101.3"], ["1.3394", "0.0004"]], [["0.152"], ["0.2927"], ["298.15"], ["101.3"], ["1.34", "0.0004"]], [["0.152"], ["0.3502"], ["298.15"], ["101.3"], ["1.3408", "0.0004"]], [["0.152"], ["0.4081"], ["298.15"], ["101.3"], ["1.3414", "0.0004"]], [["0.152"], ["0.4879"], ["298.15"], ["101.3"], ["1.3423", "0.0004"]], [["0.1833"], ["0"], ["298.15"], ["101.3"], ["1.3388", "0.0004"]], [["0.1833"], ["0.0467"], ["298.15"], ["101.3"], ["1.3395", "0.0004"]], [["0.1833"], ["0.0962"], ["298.15"], ["101.3"], ["1.3403", "0.0004"]], [["0.1833"], ["0.1426"], ["298.15"], ["101.3"], ["1.3409", "0.0004"]], [["0.1833"], ["0.1881"], ["298.15"], ["101.3"], ["1.3417", "0.0004"]], [["0.1833"], ["0.2491"], ["298.15"], ["101.3"], ["1.3424", "0.0004"]], [["0.1833"], ["0.3076"], ["298.15"], ["101.3"], ["1.3432", "0.0004"]], [["0.1833"], ["0.336"], ["298.15"], ["101.3"], ["1.3438", "0.0004"]], [["0.1833"], ["0.4013"], ["298.15"], ["101.3"], ["1.3446", "0.0004"]], [["0.1833"], ["0.4781"], ["298.15"], ["101.3"], ["1.3454", "0.0004"]], [["0.2863"], ["0"], ["298.15"], ["101.3"], ["1.3416", "0.0004"]], [["0.2863"], ["0.0597"], ["298.15"], ["101.3"], ["1.3428", "0.0004"]], [["0.2863"], ["0.0959"], ["298.15"], ["101.3"], ["1.3436", "0.0004"]], [["0.2863"], ["0.147"], ["298.15"], ["101.3"], ["1.3442", "0.0004"]], [["0.2863"], ["0.1998"], ["298.15"], ["101.3"], ["1.3449", "0.0004"]], [["0.2863"], ["0.2497"], ["298.15"], ["101.3"], ["1.3456", "0.0004"]], [["0.2863"], ["0.2878"], ["298.15"], ["101.3"], ["1.3462", "0.0004"]], [["0.2863"], ["0.345"], ["298.15"], ["101.3"], ["1.3469", "0.0004"]], [["0.2863"], ["0.4001"], ["298.15"], ["101.3"], ["1.3478", "0.0004"]], [["0.2863"], ["0.452"], ["298.15"], ["101.3"], ["1.3485", "0.0004"]], [["0.3651"], ["0"], ["298.15"], ["101.3"], ["1.3437", "0.0004"]], [["0.3651"], ["0.0492"], ["298.15"], ["101.3"], ["1.3453", "0.0004"]], [["0.3651"], ["0.0998"], ["298.15"], ["101.3"], ["1.346", "0.0004"]], [["0.3651"], ["0.1466"], ["298.15"], ["101.3"], ["1.3467", "0.0004"]], [["0.3651"], ["0.1919"], ["298.15"], ["101.3"], ["1.3474", "0.0004"]], [["0.3651"], ["0.2451"], ["298.15"], ["101.3"], ["1.348", "0.0004"]], [["0.3651"], ["0.2929"], ["298.15"], ["101.3"], ["1.3487", "0.0004"]], [["0.3651"], ["0.3418"], ["298.15"], ["101.3"], ["1.3493", "0.0004"]], [["0.3651"], ["0.3812"], ["298.15"], ["101.3"], ["1.3502", "0.0004"]], [["0.3651"], ["0.4553"], ["298.15"], ["101.3"], ["1.351", "0.0004"]]], "solvent": "water", "expmeth": "Standard Abbe refractometry"}