{"constr": [], "ref": {"title": "Volumetric and transport properties of binary liquid mixtures with 1-ethyl-3-methylimidazolium ethyl sulfate as candidate solvents for regenerative flue gas desulfurization processes", "full": "Zivkovic, Emila M.; Zivkovic, Nikola V.; Majstorovic, Divna M.; Stanimirovic, Andrej M.; Kijevcanin, Mirjana Lj. (2018) J. Chem. Thermodyn. 119, 135-154."}, "phases": ["Liquid"], "title": "Refraction, surface tension, and speed of sound: Refractive index (Na D-line)", "components": [{"idout": "AAtWDT", "mw": "236.29", "formula": "C<SUB>8</SUB>H<SUB>16</SUB>N<SUB>2</SUB>O<SUB>4</SUB>S", "name": "1-ethyl-3-methylimidazolium ethyl sulfate", "sample": [["Source:", "commercial source"], ["Initial purification:", "stated by supplier"], ["Initial purity:", "99 mass %"], ["Final purification:", "Karl Fischer titration"], ["Final purity:", "0.068 water mass %"]]}, {"formula": "C<SUB>5</SUB>H<SUB>9</SUB>NO", "name": "N-methylpyrrolidone", "idout": "AATDtI", "mw": "99.13", "sample": [["Source:", "commercial source"], ["Purification:", "stated by supplier"], ["Purity:", "99 mass %"]]}], "dhead": [["Temperature, K", null], ["Mole fraction of 1-ethyl-3-methylimidazolium ethyl sulfate", "Liquid"], ["Pressure, kPa", null], ["Refractive index (Na D-line)", "Liquid"]], "footer": "", "data": [[["288.15"], ["0"], ["100"], ["1.47166", "0.00069"]], [["288.15"], ["0.1009"], ["100"], ["1.47616", "0.00069"]], [["288.15"], ["0.2012"], ["100"], ["1.47863", "0.00069"]], [["288.15"], ["0.3021"], ["100"], ["1.47981", "0.00069"]], [["288.15"], ["0.4012"], ["100"], ["1.48047", "0.00069"]], [["288.15"], ["0.4973"], ["100"], ["1.48086", "0.00069"]], [["288.15"], ["0.596"], ["100"], ["1.48094", "0.00069"]], [["288.15"], ["0.6998"], ["100"], ["1.48099", "0.00069"]], [["288.15"], ["0.7961"], ["100"], ["1.48127", "0.00069"]], [["288.15"], ["0.8821"], ["100"], ["1.48147", "0.00069"]], [["288.15"], ["1"], ["100"], ["1.48155", "0.00069"]], [["293.15"], ["0"], ["100"], ["1.46952", "0.00069"]], [["293.15"], ["0.1009"], ["100"], ["1.47418", "0.00069"]], [["293.15"], ["0.2012"], ["100"], ["1.47679", "0.00069"]], [["293.15"], ["0.3021"], ["100"], ["1.47807", "0.00069"]], [["293.15"], ["0.4012"], ["100"], ["1.47881", "0.00069"]], [["293.15"], ["0.4973"], ["100"], ["1.47925", "0.00069"]], [["293.15"], ["0.596"], ["100"], ["1.47939", "0.00069"]], [["293.15"], ["0.6998"], ["100"], ["1.47951", "0.00069"]], [["293.15"], ["0.7961"], ["100"], ["1.47983", "0.00069"]], [["293.15"], ["0.8821"], ["100"], ["1.48006", "0.00069"]], [["293.15"], ["1"], ["100"], ["1.48018", "0.00069"]], [["298.15"], ["0"], ["100"], ["1.46736", "0.00069"]], [["298.15"], ["0.1009"], ["100"], ["1.47223", "0.00069"]], [["298.15"], ["0.2012"], ["100"], ["1.47496", "0.00069"]], [["298.15"], ["0.3021"], ["100"], ["1.47633", "0.00069"]], [["298.15"], ["0.4012"], ["100"], ["1.47714", "0.00069"]], [["298.15"], ["0.4973"], ["100"], ["1.47766", "0.00069"]], [["298.15"], ["0.596"], ["100"], ["1.47787", "0.00069"]], [["298.15"], ["0.6998"], ["100"], ["1.47804", "0.00069"]], [["298.15"], ["0.7961"], ["100"], ["1.47841", "0.00069"]], [["298.15"], ["0.8821"], ["100"], ["1.47867", "0.00069"]], [["298.15"], ["1"], ["100"], ["1.47882", "0.00069"]], [["303.15"], ["0"], ["100"], ["1.4652", "0.00069"]], [["303.15"], ["0.1009"], ["100"], ["1.47026", "0.00069"]], [["303.15"], ["0.2012"], ["100"], ["1.47313", "0.00069"]], [["303.15"], ["0.3021"], ["100"], ["1.4746", "0.00069"]], [["303.15"], ["0.4012"], ["100"], ["1.47547", "0.00069"]], [["303.15"], ["0.4973"], ["100"], ["1.47608", "0.00069"]], [["303.15"], ["0.596"], ["100"], ["1.47635", "0.00069"]], [["303.15"], ["0.6998"], ["100"], ["1.47659", "0.00069"]], [["303.15"], ["0.7961"], ["100"], ["1.47701", "0.00069"]], [["303.15"], ["0.8821"], ["100"], ["1.47728", "0.00069"]], [["303.15"], ["1"], ["100"], ["1.47746", "0.00069"]], [["308.15"], ["0"], ["100"], ["1.46306", "0.00069"]], [["308.15"], ["0.1009"], ["100"], ["1.46833", "0.00069"]], [["308.15"], ["0.2012"], ["100"], ["1.4713", "0.00069"]], [["308.15"], ["0.3021"], ["100"], ["1.47285", "0.00069"]], [["308.15"], ["0.4012"], ["100"], ["1.47384", "0.00069"]], [["308.15"], ["0.4973"], ["100"], ["1.47453", "0.00069"]], [["308.15"], ["0.596"], ["100"], ["1.47488", "0.00069"]], [["308.15"], ["0.6998"], ["100"], ["1.47517", "0.00069"]], [["308.15"], ["0.7961"], ["100"], ["1.47561", "0.00069"]], [["308.15"], ["0.8821"], ["100"], ["1.47592", "0.00069"]], [["308.15"], ["1"], ["100"], ["1.47611", "0.00069"]], [["313.15"], ["0"], ["100"], ["1.46095", "0.00069"]], [["313.15"], ["0.1009"], ["100"], ["1.46634", "0.00069"]], [["313.15"], ["0.2012"], ["100"], ["1.46948", "0.00069"]], [["313.15"], ["0.3021"], ["100"], ["1.47118", "0.00069"]], [["313.15"], ["0.4012"], ["100"], ["1.47225", "0.00069"]], [["313.15"], ["0.4973"], ["100"], ["1.473", "0.00069"]], [["313.15"], ["0.596"], ["100"], ["1.47343", "0.00069"]], [["313.15"], ["0.6998"], ["100"], ["1.47375", "0.00069"]], [["313.15"], ["0.7961"], ["100"], ["1.47423", "0.00069"]], [["313.15"], ["0.8821"], ["100"], ["1.47453", "0.00069"]], [["313.15"], ["1"], ["100"], ["1.47474", "0.00069"]], [["318.15"], ["0"], ["100"], ["1.45891", "0.00069"]], [["318.15"], ["0.1009"], ["100"], ["1.4644", "0.00069"]], [["318.15"], ["0.2012"], ["100"], ["1.46772", "0.00069"]], [["318.15"], ["0.3021"], ["100"], ["1.4695", "0.00069"]], [["318.15"], ["0.4012"], ["100"], ["1.47069", "0.00069"]], [["318.15"], ["0.4973"], ["100"], ["1.47143", "0.00069"]], [["318.15"], ["0.596"], ["100"], ["1.47195", "0.00069"]], [["318.15"], ["0.6998"], ["100"], ["1.47229", "0.00069"]], [["318.15"], ["0.7961"], ["100"], ["1.47284", "0.00069"]], [["318.15"], ["0.8821"], ["100"], ["1.47317", "0.00069"]], [["318.15"], ["1"], ["100"], ["1.47341", "0.00069"]], [["323.15"], ["0"], ["100"], ["1.4568", "0.00069"]], [["323.15"], ["0.1009"], ["100"], ["1.46246", "0.00069"]], [["323.15"], ["0.2012"], ["100"], ["1.4659", "0.00069"]], [["323.15"], ["0.3021"], ["100"], ["1.46777", "0.00069"]], [["323.15"], ["0.4012"], ["100"], ["1.46906", "0.00069"]], [["323.15"], ["0.4973"], ["100"], ["1.46985", "0.00069"]], [["323.15"], ["0.596"], ["100"], ["1.47045", "0.00069"]], [["323.15"], ["0.6998"], ["100"], ["1.47084", "0.00069"]], [["323.15"], ["0.7961"], ["100"], ["1.47143", "0.00069"]], [["323.15"], ["0.8821"], ["100"], ["1.4718", "0.00069"]], [["323.15"], ["1"], ["100"], ["1.47206", "0.00069"]], [["328.15"], ["0"], ["100"], ["1.45473", "0.00069"]], [["328.15"], ["0.1009"], ["100"], ["1.46054", "0.00069"]], [["328.15"], ["0.2012"], ["100"], ["1.46409", "0.00069"]], [["328.15"], ["0.3021"], ["100"], ["1.46607", "0.00069"]], [["328.15"], ["0.4012"], ["100"], ["1.46742", "0.00069"]], [["328.15"], ["0.4973"], ["100"], ["1.46828", "0.00069"]], [["328.15"], ["0.596"], ["100"], ["1.46895", "0.00069"]], [["328.15"], ["0.6998"], ["100"], ["1.46939", "0.00069"]], [["328.15"], ["0.7961"], ["100"], ["1.47005", "0.00069"]], [["328.15"], ["0.8821"], ["100"], ["1.47044", "0.00069"]], [["328.15"], ["1"], ["100"], ["1.47075", "0.00069"]], [["333.15"], ["0"], ["100"], ["1.45267", "0.00069"]], [["333.15"], ["0.1009"], ["100"], ["1.45863", "0.00069"]], [["333.15"], ["0.2012"], ["100"], ["1.46232", "0.00069"]], [["333.15"], ["0.3021"], ["100"], ["1.46438", "0.00069"]], [["333.15"], ["0.4012"], ["100"], ["1.46584", "0.00069"]], [["333.15"], ["0.4973"], ["100"], ["1.46677", "0.00069"]], [["333.15"], ["0.596"], ["100"], ["1.46746", "0.00069"]], [["333.15"], ["0.6998"], ["100"], ["1.46794", "0.00069"]], [["333.15"], ["0.7961"], ["100"], ["1.46865", "0.00069"]], [["333.15"], ["0.8821"], ["100"], ["1.4691", "0.00069"]], [["333.15"], ["1"], ["100"], ["1.46943", "0.00069"]]], "solvent": null, "expmeth": "Standard Abbe refractometry"}