{"ref": {"full": "Shekaari, H.; Zafarani-Moattar, M. T.; Mirheydari, S. N. (2016) J. Solution Chem. 45, 624-663.", "title": "Effect of 1-Butyl-3-methylimidazolium Ibuprofenate as an Active Pharmaceutical Ingredient Ionic Liquid (API-IL) on the Thermodynamic Properties of Glycine and L-Alanine in Aqueous Solutions at Different Temperatures"}, "constr": [], "phases": ["Liquid"], "components": [{"mw": "75.07", "idout": "AAOWgA", "formula": "C<SUB>2</SUB>H<SUB>5</SUB>NO<SUB>2</SUB>", "name": "2-aminoacetic acid", "sample": [["Source:", "synthesized by the authors"], ["Initial purification:", "estimated by the compiler"], ["Initial purity:", "99 mass %"], ["Final purification:", "Karl Fischer titration"], ["Final purity:", "0.03 water mass %"]]}, {"mw": "18.02", "idout": "AADYJk", "name": "water", "formula": "H<SUB>2</SUB>O", "sample": [["Source:", "synthesized by the authors"], ["Purification:", "estimated by the compiler"], ["Purity:", "99.9 mol %(de-gassed by boiling or ultrasonically;fractional distillation)"]]}, {"name": "1-butyl-3-methylimidazolium ibuprofenate", "formula": "C<SUB>21</SUB>H<SUB>32</SUB>N<SUB>2</SUB>O<SUB>2</SUB>", "idout": "ABOMSG", "mw": "344.50", "sample": [["Source:", "synthesized by the authors"], ["Initial purification:", "estimated by the compiler"], ["Initial purity:", "98 mass %"], ["Final purification:", "Karl Fischer titration"], ["Final purity:", "0.05 water mass %"]]}], "title": "Refraction, surface tension, and speed of sound: Refractive index (Na D-line)", "dhead": [["Temperature, K", null], ["MolaLity of 2-aminoacetic acid, mol/kg", "Liquid"], ["Solvent: MolaLity of 1-butyl-3-methylimidazolium ibuprofenate, mol/kg", "Liquid"], ["Pressure, kPa", null], ["Refractive index (Na D-line)", "Liquid"]], "data": [[["288.15"], ["0"], ["0"], ["86.8"], ["1.3328", "0.0015"]], [["288.15"], ["0"], ["0.1109"], ["86.8"], ["1.3408", "0.0016"]], [["288.15"], ["0"], ["0.1801"], ["86.8"], ["1.3452", "0.0016"]], [["288.15"], ["0"], ["0.264"], ["86.8"], ["1.3504", "0.0017"]], [["288.15"], ["0.1011"], ["0"], ["86.8"], ["1.3342", "0.0015"]], [["288.15"], ["0.1075"], ["0.1801"], ["86.8"], ["1.3459", "0.0016"]], [["288.15"], ["0.114"], ["0.1109"], ["86.8"], ["1.3405", "0.0016"]], [["288.15"], ["0.1163"], ["0.264"], ["86.8"], ["1.3527", "0.0017"]], [["288.15"], ["0.1422"], ["0"], ["86.8"], ["1.3347", "0.0015"]], [["288.15"], ["0.1501"], ["0.1801"], ["86.8"], ["1.3465", "0.0016"]], [["288.15"], ["0.1537"], ["0.1109"], ["86.8"], ["1.3411", "0.0016"]], [["288.15"], ["0.1545"], ["0.264"], ["86.8"], ["1.3531", "0.0017"]], [["288.15"], ["0.1964"], ["0"], ["86.8"], ["1.3353", "0.0015"]], [["288.15"], ["0.2013"], ["0.1801"], ["86.8"], ["1.3472", "0.0016"]], [["288.15"], ["0.208"], ["0.1109"], ["86.8"], ["1.3419", "0.0016"]], [["288.15"], ["0.2082"], ["0.264"], ["86.8"], ["1.3538", "0.0017"]], [["288.15"], ["0.2486"], ["0"], ["86.8"], ["1.3359", "0.0015"]], [["288.15"], ["0.2518"], ["0.264"], ["86.8"], ["1.3543", "0.0017"]], [["288.15"], ["0.252"], ["0.1109"], ["86.8"], ["1.3425", "0.0016"]], [["288.15"], ["0.2569"], ["0.1801"], ["86.8"], ["1.3479", "0.0016"]], [["288.15"], ["0.297"], ["0.1109"], ["86.8"], ["1.3432", "0.0016"]], [["288.15"], ["0.3032"], ["0"], ["86.8"], ["1.3366", "0.0015"]], [["288.15"], ["0.3072"], ["0.1801"], ["86.8"], ["1.3486", "0.0016"]], [["288.15"], ["0.3115"], ["0.264"], ["86.8"], ["1.355", "0.0017"]], [["288.15"], ["0.3499"], ["0.1109"], ["86.8"], ["1.3439", "0.0016"]], [["288.15"], ["0.3502"], ["0.1801"], ["86.8"], ["1.3492", "0.0016"]], [["288.15"], ["0.3532"], ["0"], ["86.8"], ["1.3372", "0.0015"]], [["288.15"], ["0.3535"], ["0.264"], ["86.8"], ["1.3555", "0.0017"]], [["288.15"], ["0.3934"], ["0.1801"], ["86.8"], ["1.3498", "0.0016"]], [["288.15"], ["0.3997"], ["0.1109"], ["86.8"], ["1.3446", "0.0016"]], [["288.15"], ["0.4003"], ["0"], ["86.8"], ["1.3377", "0.0015"]], [["288.15"], ["0.4008"], ["0.264"], ["86.8"], ["1.3561", "0.0017"]], [["288.15"], ["0.4462"], ["0.1801"], ["86.8"], ["1.3505", "0.0016"]], [["288.15"], ["0.4467"], ["0.1109"], ["86.8"], ["1.3453", "0.0016"]], [["288.15"], ["0.4472"], ["0.264"], ["86.8"], ["1.3566", "0.0017"]], [["288.15"], ["0.4498"], ["0"], ["86.8"], ["1.3383", "0.0015"]], [["298.15"], ["0"], ["0"], ["86.8"], ["1.3322", "0.0015"]], [["298.15"], ["0"], ["0.1109"], ["86.8"], ["1.3396", "0.0016"]], [["298.15"], ["0"], ["0.1801"], ["86.8"], ["1.3447", "0.0016"]], [["298.15"], ["0"], ["0.264"], ["86.8"], ["1.35", "0.0016"]], [["298.15"], ["0.1011"], ["0"], ["86.8"], ["1.3336", "0.0015"]], [["298.15"], ["0.1075"], ["0.1801"], ["86.8"], ["1.345", "0.0016"]], [["298.15"], ["0.114"], ["0.1109"], ["86.8"], ["1.3397", "0.0016"]], [["298.15"], ["0.1163"], ["0.264"], ["86.8"], ["1.3517", "0.0017"]], [["298.15"], ["0.1422"], ["0"], ["86.8"], ["1.334", "0.0015"]], [["298.15"], ["0.1501"], ["0.1801"], ["86.8"], ["1.3456", "0.0016"]], [["298.15"], ["0.1537"], ["0.1109"], ["86.8"], ["1.3402", "0.0016"]], [["298.15"], ["0.1545"], ["0.264"], ["86.8"], ["1.3522", "0.0017"]], [["298.15"], ["0.1964"], ["0"], ["86.8"], ["1.3346", "0.0015"]], [["298.15"], ["0.2013"], ["0.1801"], ["86.8"], ["1.3463", "0.0016"]], [["298.15"], ["0.208"], ["0.1109"], ["86.8"], ["1.341", "0.0016"]], [["298.15"], ["0.2082"], ["0.264"], ["86.8"], ["1.3529", "0.0017"]], [["298.15"], ["0.2486"], ["0"], ["86.8"], ["1.3352", "0.0015"]], [["298.15"], ["0.2518"], ["0.264"], ["86.8"], ["1.3534", "0.0017"]], [["298.15"], ["0.252"], ["0.1109"], ["86.8"], ["1.3415", "0.0016"]], [["298.15"], ["0.2569"], ["0.1801"], ["86.8"], ["1.347", "0.0016"]], [["298.15"], ["0.297"], ["0.1109"], ["86.8"], ["1.3421", "0.0016"]], [["298.15"], ["0.3032"], ["0"], ["86.8"], ["1.3358", "0.0015"]], [["298.15"], ["0.3072"], ["0.1801"], ["86.8"], ["1.3476", "0.0016"]], [["298.15"], ["0.3115"], ["0.264"], ["86.8"], ["1.3541", "0.0017"]], [["298.15"], ["0.3499"], ["0.1109"], ["86.8"], ["1.3428", "0.0016"]], [["298.15"], ["0.3502"], ["0.1801"], ["86.8"], ["1.3482", "0.0016"]], [["298.15"], ["0.3532"], ["0"], ["86.8"], ["1.3365", "0.0015"]], [["298.15"], ["0.3535"], ["0.264"], ["86.8"], ["1.3546", "0.0017"]], [["298.15"], ["0.3934"], ["0.1801"], ["86.8"], ["1.3488", "0.0016"]], [["298.15"], ["0.3997"], ["0.1109"], ["86.8"], ["1.3434", "0.0016"]], [["298.15"], ["0.4003"], ["0"], ["86.8"], ["1.3371", "0.0015"]], [["298.15"], ["0.4008"], ["0.264"], ["86.8"], ["1.3551", "0.0017"]], [["298.15"], ["0.4462"], ["0.1801"], ["86.8"], ["1.3495", "0.0016"]], [["298.15"], ["0.4467"], ["0.1109"], ["86.8"], ["1.344", "0.0016"]], [["298.15"], ["0.4472"], ["0.264"], ["86.8"], ["1.3557", "0.0017"]], [["298.15"], ["0.4498"], ["0"], ["86.8"], ["1.3377", "0.0015"]], [["308.15"], ["0"], ["0"], ["86.8"], ["1.3314", "0.0015"]], [["308.15"], ["0"], ["0.1109"], ["86.8"], ["1.338", "0.0016"]], [["308.15"], ["0"], ["0.1801"], ["86.8"], ["1.3427", "0.0016"]], [["308.15"], ["0"], ["0.264"], ["86.8"], ["1.348", "0.0017"]], [["308.15"], ["0.1011"], ["0"], ["86.8"], ["1.3323", "0.0015"]], [["308.15"], ["0.1075"], ["0.1801"], ["86.8"], ["1.3441", "0.0016"]], [["308.15"], ["0.114"], ["0.1109"], ["86.8"], ["1.3386", "0.0016"]], [["308.15"], ["0.1163"], ["0.264"], ["86.8"], ["1.3503", "0.0017"]], [["308.15"], ["0.1422"], ["0"], ["86.8"], ["1.3329", "0.0015"]], [["308.15"], ["0.1501"], ["0.1801"], ["86.8"], ["1.3446", "0.0016"]], [["308.15"], ["0.1537"], ["0.1109"], ["86.8"], ["1.3392", "0.0016"]], [["308.15"], ["0.1545"], ["0.264"], ["86.8"], ["1.3507", "0.0017"]], [["308.15"], ["0.1964"], ["0"], ["86.8"], ["1.3335", "0.0015"]], [["308.15"], ["0.2013"], ["0.1801"], ["86.8"], ["1.3452", "0.0016"]], [["308.15"], ["0.208"], ["0.1109"], ["86.8"], ["1.3399", "0.0016"]], [["308.15"], ["0.2082"], ["0.264"], ["86.8"], ["1.3514", "0.0017"]], [["308.15"], ["0.2486"], ["0"], ["86.8"], ["1.3342", "0.0015"]], [["308.15"], ["0.2518"], ["0.264"], ["86.8"], ["1.352", "0.0017"]], [["308.15"], ["0.252"], ["0.1109"], ["86.8"], ["1.3405", "0.0016"]], [["308.15"], ["0.2569"], ["0.1801"], ["86.8"], ["1.346", "0.0016"]], [["308.15"], ["0.297"], ["0.1109"], ["86.8"], ["1.3412", "0.0016"]], [["308.15"], ["0.3032"], ["0"], ["86.8"], ["1.3348", "0.0015"]], [["308.15"], ["0.3072"], ["0.1801"], ["86.8"], ["1.3466", "0.0016"]], [["308.15"], ["0.3115"], ["0.264"], ["86.8"], ["1.3528", "0.0017"]], [["308.15"], ["0.3499"], ["0.1109"], ["86.8"], ["1.3419", "0.0016"]], [["308.15"], ["0.3502"], ["0.1801"], ["86.8"], ["1.3471", "0.0016"]], [["308.15"], ["0.3532"], ["0"], ["86.8"], ["1.3354", "0.0015"]], [["308.15"], ["0.3535"], ["0.264"], ["86.8"], ["1.3533", "0.0017"]], [["308.15"], ["0.3934"], ["0.1801"], ["86.8"], ["1.3477", "0.0016"]], [["308.15"], ["0.3997"], ["0.1109"], ["86.8"], ["1.3425", "0.0016"]], [["308.15"], ["0.4003"], ["0"], ["86.8"], ["1.336", "0.0015"]], [["308.15"], ["0.4008"], ["0.264"], ["86.8"], ["1.3539", "0.0017"]], [["308.15"], ["0.4462"], ["0.1801"], ["86.8"], ["1.3484", "0.0016"]], [["308.15"], ["0.4467"], ["0.1109"], ["86.8"], ["1.3431", "0.0016"]], [["308.15"], ["0.4472"], ["0.264"], ["86.8"], ["1.3544", "0.0017"]], [["308.15"], ["0.4498"], ["0"], ["86.8"], ["1.3369", "0.0015"]], [["318.15"], ["0"], ["0"], ["86.8"], ["1.3302", "0.0015"]], [["318.15"], ["0"], ["0.1109"], ["86.8"], ["1.3369", "0.0016"]], [["318.15"], ["0"], ["0.1801"], ["86.8"], ["1.3416", "0.0016"]], [["318.15"], ["0"], ["0.264"], ["86.8"], ["1.3467", "0.0017"]], [["318.15"], ["0.1011"], ["0"], ["86.8"], ["1.3318", "0.0015"]], [["318.15"], ["0.1075"], ["0.1801"], ["86.8"], ["1.3428", "0.0016"]], [["318.15"], ["0.114"], ["0.1109"], ["86.8"], ["1.3372", "0.0016"]], [["318.15"], ["0.1163"], ["0.264"], ["86.8"], ["1.3486", "0.0017"]], [["318.15"], ["0.1422"], ["0"], ["86.8"], ["1.3323", "0.0015"]], [["318.15"], ["0.1501"], ["0.1801"], ["86.8"], ["1.3434", "0.0016"]], [["318.15"], ["0.1537"], ["0.1109"], ["86.8"], ["1.3378", "0.0016"]], [["318.15"], ["0.1545"], ["0.264"], ["86.8"], ["1.3491", "0.0017"]], [["318.15"], ["0.1964"], ["0"], ["86.8"], ["1.3329", "0.0015"]], [["318.15"], ["0.2013"], ["0.1801"], ["86.8"], ["1.344", "0.0016"]], [["318.15"], ["0.208"], ["0.1109"], ["86.8"], ["1.3385", "0.0016"]], [["318.15"], ["0.2082"], ["0.264"], ["86.8"], ["1.3498", "0.0017"]], [["318.15"], ["0.2486"], ["0"], ["86.8"], ["1.3335", "0.0015"]], [["318.15"], ["0.2518"], ["0.264"], ["86.8"], ["1.3504", "0.0017"]], [["318.15"], ["0.252"], ["0.1109"], ["86.8"], ["1.3391", "0.0016"]], [["318.15"], ["0.2569"], ["0.1801"], ["86.8"], ["1.3447", "0.0016"]], [["318.15"], ["0.297"], ["0.1109"], ["86.8"], ["1.3398", "0.0016"]], [["318.15"], ["0.3032"], ["0"], ["86.8"], ["1.3342", "0.0015"]], [["318.15"], ["0.3072"], ["0.1801"], ["86.8"], ["1.3454", "0.0016"]], [["318.15"], ["0.3115"], ["0.264"], ["86.8"], ["1.3512", "0.0017"]], [["318.15"], ["0.3499"], ["0.1109"], ["86.8"], ["1.3405", "0.0016"]], [["318.15"], ["0.3502"], ["0.1801"], ["86.8"], ["1.3459", "0.0016"]], [["318.15"], ["0.3532"], ["0"], ["86.8"], ["1.3348", "0.0015"]], [["318.15"], ["0.3535"], ["0.264"], ["86.8"], ["1.3517", "0.0017"]], [["318.15"], ["0.3934"], ["0.1801"], ["86.8"], ["1.3465", "0.0016"]], [["318.15"], ["0.3997"], ["0.1109"], ["86.8"], ["1.3411", "0.0016"]], [["318.15"], ["0.4003"], ["0"], ["86.8"], ["1.3354", "0.0015"]], [["318.15"], ["0.4008"], ["0.264"], ["86.8"], ["1.3523", "0.0017"]], [["318.15"], ["0.4462"], ["0.1801"], ["86.8"], ["1.3471", "0.0016"]], [["318.15"], ["0.4467"], ["0.1109"], ["86.8"], ["1.3417", "0.0016"]], [["318.15"], ["0.4472"], ["0.264"], ["86.8"], ["1.353", "0.0017"]], [["318.15"], ["0.4498"], ["0"], ["86.8"], ["1.336", "0.0015"]]], "solvent": "water + 1-butyl-3-methylimidazolium ibuprofenate", "footer": "", "expmeth": "Standard Abbe refractometry"}