{"title": "Refraction, surface tension, and speed of sound: Refractive index (Na D-line)", "components": [{"idout": "ABNWoR", "mw": "340.29", "name": "1-octyl-3-methylimidazolium hexafluorophosphate", "formula": "C<SUB>12</SUB>H<SUB>23</SUB>F<SUB>6</SUB>N<SUB>2</SUB>P", "sample": [["Source:", "synthesized by the authors"], ["Purification:", "Karl Fischer titration"], ["Purity:", "0.03 water mass %"]]}], "dhead": [["Temperature, K", null], ["Pressure, kPa", null], ["Refractive index (Na D-line)", "Liquid"]], "footer": "", "data": [[["283.15"], ["101.325"], ["1.42716", "0.0011"]], [["288.15"], ["101.325"], ["1.42578", "0.0011"]], [["293.15"], ["101.325"], ["1.4244", "0.0011"]], [["298.15"], ["101.325"], ["1.42302", "0.0011"]], [["303.15"], ["101.325"], ["1.42165", "0.0011"]], [["308.15"], ["101.325"], ["1.42028", "0.0011"]], [["313.15"], ["101.325"], ["1.41887", "0.0011"]], [["318.15"], ["101.325"], ["1.41749", "0.0011"]], [["323.15"], ["101.325"], ["1.4161", "0.0011"]], [["328.15"], ["101.325"], ["1.41471", "0.0011"]], [["333.15"], ["101.325"], ["1.41334", "0.0011"]], [["338.15"], ["101.325"], ["1.41195", "0.0011"]], [["343.15"], ["101.325"], ["1.41056", "0.0011"]]], "solvent": null, "expmeth": "Standard Abbe refractometry", "constr": [], "ref": {"title": "Physical properties of ionic liquids based on 1-alkyl-3-methylimidazolium cation and hexafluorophosphate as anion and temperature dependence", "full": "Pereiro, A. B.; Legido, J. L.; Rodriguez, A. (2007) J. Chem. Thermodyn. 39(8), 1168-1175."}, "phases": ["Liquid"]}