{"components": [{"sample": [["Source:", "commercial source"], ["Initial purification:", "stated by supplier"], ["Initial purity:", "99.5 mass %"], ["Final purification:", "Karl Fischer titration"], ["Final purity:", "0.004 water mass %(de-gassed by boiling or ultrasonically;dried by vacuum heating)"]], "idout": "ABchwx", "mw": "419.36", "name": "1-butyl-3-methylimidazolium bis(trifluoromethylsulfonyl)imide", "formula": "C<SUB>10</SUB>H<SUB>15</SUB>F<SUB>6</SUB>N<SUB>3</SUB>O<SUB>4</SUB>S<SUB>2</SUB>"}, {"sample": [["Source:", "commercial source"], ["Initial purification:", "stated by supplier"], ["Initial purity:", "99 mass %"], ["Final purification:", "gas chromatography;Karl Fischer titration"], ["Final purity:", "99.6 mass %;0.01 water mass %(de-gassed by boiling or ultrasonically;fractional distillation)"]], "idout": "AAQxSq", "mw": "88.11", "name": "ethyl acetate", "formula": "C<SUB>4</SUB>H<SUB>8</SUB>O<SUB>2</SUB>"}], "title": "Refraction, surface tension, and speed of sound: Refractive index (Na D-line)", "dhead": [["Temperature, K", null], ["Mole fraction of 1-butyl-3-methylimidazolium bis(trifluoromethylsulfonyl)imide", "Liquid"], ["Pressure, kPa", null], ["Refractive index (Na D-line)", "Liquid"]], "solvent": null, "data": [[["298.15"], ["0"], ["100"], ["1.3699", "0.001"]], [["298.15"], ["0.1045"], ["100"], ["1.3878", "0.001"]], [["298.15"], ["0.2067"], ["100"], ["1.3992", "0.001"]], [["298.15"], ["0.3058"], ["100"], ["1.4067", "0.001"]], [["298.15"], ["0.4012"], ["100"], ["1.412", "0.001"]], [["298.15"], ["0.5002"], ["100"], ["1.4161", "0.001"]], [["298.15"], ["0.6065"], ["100"], ["1.4195", "0.001"]], [["298.15"], ["0.7081"], ["100"], ["1.4221", "0.001"]], [["298.15"], ["0.7932"], ["100"], ["1.4237", "0.001"]], [["298.15"], ["0.9087"], ["100"], ["1.4256", "0.001"]], [["298.15"], ["1"], ["100"], ["1.4267", "0.001"]], [["303.15"], ["0"], ["100"], ["1.3673", "0.001"]], [["303.15"], ["0.1045"], ["100"], ["1.3855", "0.001"]], [["303.15"], ["0.2067"], ["100"], ["1.3969", "0.001"]], [["303.15"], ["0.3058"], ["100"], ["1.4045", "0.001"]], [["303.15"], ["0.4012"], ["100"], ["1.4099", "0.001"]], [["303.15"], ["0.5002"], ["100"], ["1.4141", "0.001"]], [["303.15"], ["0.6065"], ["100"], ["1.4176", "0.001"]], [["303.15"], ["0.7081"], ["100"], ["1.4203", "0.001"]], [["303.15"], ["0.7932"], ["100"], ["1.4221", "0.001"]], [["303.15"], ["0.9087"], ["100"], ["1.424", "0.001"]], [["303.15"], ["1"], ["100"], ["1.4252", "0.001"]], [["308.15"], ["0"], ["100"], ["1.3648", "0.001"]], [["308.15"], ["0.1045"], ["100"], ["1.3831", "0.001"]], [["308.15"], ["0.2067"], ["100"], ["1.3946", "0.001"]], [["308.15"], ["0.3058"], ["100"], ["1.4023", "0.001"]], [["308.15"], ["0.4012"], ["100"], ["1.4078", "0.001"]], [["308.15"], ["0.5002"], ["100"], ["1.4121", "0.001"]], [["308.15"], ["0.6065"], ["100"], ["1.4157", "0.001"]], [["308.15"], ["0.7081"], ["100"], ["1.4185", "0.001"]], [["308.15"], ["0.7932"], ["100"], ["1.4204", "0.001"]], [["308.15"], ["0.9087"], ["100"], ["1.4225", "0.001"]], [["308.15"], ["1"], ["100"], ["1.4237", "0.001"]], [["313.15"], ["0"], ["100"], ["1.3623", "0.001"]], [["313.15"], ["0.1045"], ["100"], ["1.3807", "0.001"]], [["313.15"], ["0.2067"], ["100"], ["1.3924", "0.001"]], [["313.15"], ["0.3058"], ["100"], ["1.4001", "0.001"]], [["313.15"], ["0.4012"], ["100"], ["1.4056", "0.001"]], [["313.15"], ["0.5002"], ["100"], ["1.4101", "0.001"]], [["313.15"], ["0.6065"], ["100"], ["1.4138", "0.001"]], [["313.15"], ["0.7081"], ["100"], ["1.4167", "0.001"]], [["313.15"], ["0.7932"], ["100"], ["1.4187", "0.001"]], [["313.15"], ["0.9087"], ["100"], ["1.421", "0.001"]], [["313.15"], ["1"], ["100"], ["1.4223", "0.001"]], [["318.15"], ["0"], ["100"], ["1.3597", "0.001"]], [["318.15"], ["0.1045"], ["100"], ["1.3784", "0.001"]], [["318.15"], ["0.2067"], ["100"], ["1.3902", "0.001"]], [["318.15"], ["0.3058"], ["100"], ["1.3979", "0.001"]], [["318.15"], ["0.4012"], ["100"], ["1.4035", "0.001"]], [["318.15"], ["0.5002"], ["100"], ["1.4081", "0.001"]], [["318.15"], ["0.6065"], ["100"], ["1.412", "0.001"]], [["318.15"], ["0.7081"], ["100"], ["1.415", "0.001"]], [["318.15"], ["0.7932"], ["100"], ["1.4171", "0.001"]], [["318.15"], ["0.9087"], ["100"], ["1.4195", "0.001"]], [["318.15"], ["1"], ["100"], ["1.4208", "0.001"]], [["323.15"], ["0"], ["100"], ["1.3574", "0.001"]], [["323.15"], ["0.1045"], ["100"], ["1.3762", "0.001"]], [["323.15"], ["0.2067"], ["100"], ["1.388", "0.001"]], [["323.15"], ["0.3058"], ["100"], ["1.3958", "0.001"]], [["323.15"], ["0.4012"], ["100"], ["1.4015", "0.001"]], [["323.15"], ["0.5002"], ["100"], ["1.4062", "0.001"]], [["323.15"], ["0.6065"], ["100"], ["1.4102", "0.001"]], [["323.15"], ["0.7081"], ["100"], ["1.4133", "0.001"]], [["323.15"], ["0.7932"], ["100"], ["1.4155", "0.001"]], [["323.15"], ["0.9087"], ["100"], ["1.4179", "0.001"]], [["323.15"], ["1"], ["100"], ["1.4192", "0.001"]]], "footer": "", "expmeth": "Standard Abbe refractometry", "ref": {"full": "Rao, P.V.S.S. Rama; Krishna, T.S.; Bharath, Ponnuri; Dey, Ranjan; Ramachandran, D. (2021) J. Chem. Thermodyn. 156, 106383.", "title": "Understanding of molecular interactions between ethyl acetate and 1-butyl-3-methyl-imidazolium bis(trifluoromethylsulfonyl)imide: A thermophysical study"}, "constr": [], "phases": ["Liquid"]}