{"ref": {"full": "Seki, Shiro; Serizawa, Nobuyuki; Ono, Shimpei; Takei, Katsuhito; Hayamizu, Kikuko; Tsuzuki, Seiji; Umebayashi, Yasuhiro (2019) J. Chem. Eng. Data 64(2), 433-441.", "title": "Densities, Viscosities, and Refractive Indices of Binary Room-Temperature Ionic Liquids with Common Cations/Anions"}, "constr": [], "phases": ["Liquid"], "components": [{"sample": [["Source:", "synthesized by the authors"], ["Purification:", "estimated by the compiler"], ["Purity:", "98 mass %"]], "formula": "C<SUB>13</SUB>H<SUB>26</SUB>F<SUB>6</SUB>N<SUB>2</SUB>O<SUB>4</SUB>S<SUB>2</SUB>", "name": "triethylpentylammonium bis(trifluoromethylsulfonyl)imide", "mw": "452.47", "idout": "ABjAjC"}], "title": "Refraction, surface tension, and speed of sound: Refractive index (Na D-line)", "dhead": [["Temperature, K", null], ["Pressure, kPa", null], ["Refractive index (Na D-line)", "Liquid"]], "data": [[["283.15"], ["101.325"], ["1.4288", "0.0006"]], [["288.15"], ["101.325"], ["1.4274", "0.0006"]], [["293.15"], ["101.325"], ["1.426", "0.0006"]], [["298.15"], ["101.325"], ["1.4246", "0.0006"]], [["303.15"], ["101.325"], ["1.4232", "0.0006"]], [["308.15"], ["101.325"], ["1.4218", "0.0006"]], [["313.15"], ["101.325"], ["1.4203", "0.0006"]], [["318.15"], ["101.325"], ["1.419", "0.0006"]], [["323.15"], ["101.325"], ["1.4176", "0.0006"]], [["328.15"], ["101.325"], ["1.4162", "0.0006"]], [["333.15"], ["101.325"], ["1.4148", "0.0006"]], [["338.15"], ["101.325"], ["1.4134", "0.0006"]], [["343.15"], ["101.325"], ["1.412", "0.0006"]], [["348.15"], ["101.325"], ["1.4107", "0.0006"]], [["353.15"], ["101.325"], ["1.4093", "0.0006"]]], "solvent": null, "footer": "", "expmeth": "Standard Abbe refractometry"}