{"phases": ["Liquid"], "constr": [], "ref": {"title": "Density and Refractive Index of Binary Mixtures of Two 1-Alkyl-3-methylimidazolium Ionic Liquids with 1,4-Dioxane and Ethylene Glycol", "full": "Ciocirlan, O.; Croitoru, O.; Iulian, O. (2014) J. Chem. Eng. Data 59(4), 1165-1174."}, "footer": "", "data": [[["298.15"], ["0"], ["101"], ["1.4205", "0.0004"]], [["298.15"], ["0.3292"], ["101"], ["1.4214", "0.0004"]], [["298.15"], ["0.4547"], ["101"], ["1.4197", "0.0005"]], [["298.15"], ["0.4923"], ["101"], ["1.4191", "0.0005"]], [["298.15"], ["0.6409"], ["101"], ["1.4165", "0.0005"]], [["298.15"], ["0.6838"], ["101"], ["1.4157", "0.0005"]], [["298.15"], ["0.7851"], ["101"], ["1.414", "0.0005"]], [["298.15"], ["0.8336"], ["101"], ["1.4132", "0.0005"]], [["298.15"], ["1"], ["101"], ["1.4111", "0.0005"]], [["303.15"], ["0"], ["101"], ["1.4171", "0.0004"]], [["303.15"], ["0.3292"], ["101"], ["1.4195", "0.0004"]], [["303.15"], ["0.4547"], ["101"], ["1.4181", "0.0005"]], [["303.15"], ["0.4923"], ["101"], ["1.4176", "0.0005"]], [["303.15"], ["0.6409"], ["101"], ["1.415", "0.0005"]], [["303.15"], ["0.6838"], ["101"], ["1.4143", "0.0005"]], [["303.15"], ["0.7851"], ["101"], ["1.4125", "0.0005"]], [["303.15"], ["0.8336"], ["101"], ["1.4118", "0.0005"]], [["303.15"], ["1"], ["101"], ["1.41", "0.0005"]], [["313.15"], ["0"], ["101"], ["1.4112", "0.0004"]], [["313.15"], ["0.3292"], ["101"], ["1.4163", "0.0004"]], [["313.15"], ["0.4547"], ["101"], ["1.4154", "0.0005"]], [["313.15"], ["0.4923"], ["101"], ["1.4149", "0.0005"]], [["313.15"], ["0.6409"], ["101"], ["1.4126", "0.0005"]], [["313.15"], ["0.6838"], ["101"], ["1.4118", "0.0005"]], [["313.15"], ["0.7851"], ["101"], ["1.41", "0.0005"]], [["313.15"], ["0.8336"], ["101"], ["1.4092", "0.0005"]], [["313.15"], ["1"], ["101"], ["1.4073", "0.0005"]], [["323.15"], ["0"], ["101"], ["1.4063", "0.0004"]], [["323.15"], ["0.3292"], ["101"], ["1.4129", "0.0004"]], [["323.15"], ["0.4547"], ["101"], ["1.4123", "0.0005"]], [["323.15"], ["0.4923"], ["101"], ["1.4119", "0.0005"]], [["323.15"], ["0.6409"], ["101"], ["1.4097", "0.0005"]], [["323.15"], ["0.6838"], ["101"], ["1.409", "0.0005"]], [["323.15"], ["0.7851"], ["101"], ["1.4074", "0.0005"]], [["323.15"], ["0.8336"], ["101"], ["1.4067", "0.0005"]], [["323.15"], ["1"], ["101"], ["1.4051", "0.0005"]]], "solvent": null, "expmeth": "Standard Abbe refractometry", "title": "Refraction, surface tension, and speed of sound: Refractive index (Na D-line)", "components": [{"idout": "AAQxnz", "mw": "88.11", "formula": "C<SUB>4</SUB>H<SUB>8</SUB>O<SUB>2</SUB>", "name": "1,4-dioxane", "sample": [["Source:", "commercial source"], ["Purification:", "stated by supplier"], ["Purity:", "99 mass %"], ["Purity analysis:", "molecular sieve treatment"]]}, {"sample": [["Source:", "commercial source"], ["Purification:", "stated by supplier"], ["Purity:", "98 mass %"], ["Purity analysis:", "none used"]], "idout": "AAmDom", "mw": "197.97", "formula": "C<SUB>6</SUB>H<SUB>11</SUB>BF<SUB>4</SUB>N<SUB>2</SUB>", "name": "1-ethyl-3-methylimidazolium tetrafluoroborate"}], "dhead": [["Temperature, K", null], ["Mole fraction of 1-ethyl-3-methylimidazolium tetrafluoroborate", "Liquid"], ["Pressure, kPa", null], ["Refractive index (Na D-line)", "Liquid"]]}