{"ref": {"title": "Molecular Interactions of Some Bioactive Molecules Prevalent in Aqueous Ionic Liquid Solutions at Different Temperatures Investigated by Experimental and Computational Contrivance", "full": "Ghosh, Biswajit; Sinha, Anuradha; Roy, Niloy; Rajbanshi, Biplab; Mondal, Modhusudan; Roy, Debadrita; Das, Annwesha; Ghosh, Narendra Nath; Dakua, Vikas Kumar; Roy, Mahendra Nath (2022) Fluid Phase Equilib. 557, 113415."}, "constr": [], "phases": ["Liquid"], "title": "Refraction, surface tension, and speed of sound: Refractive index (Na D-line)", "components": [{"formula": "C<SUB>5</SUB>H<SUB>11</SUB>NO<SUB>2</SUB>", "name": "L-valine", "mw": "117.15", "idout": "AAWbiv", "sample": [["Source:", "commercial source"], ["Purification:", "stated by supplier"], ["Purity:", "99 mass %"], ["Purity analysis:", "dried by vacuum heating"]]}, {"sample": [["Source:", "commercial source"], ["Purification:", "stated by supplier"], ["Purity:", "99 mass %"]], "mw": "311.94", "idout": "ABHzIS", "name": "benzyltributylammonium chloride", "formula": "C<SUB>19</SUB>H<SUB>34</SUB>ClN"}, {"sample": [["Source:", "synthesized by the authors"]], "idout": "AADYJk", "mw": "18.02", "name": "water", "formula": "H<SUB>2</SUB>O"}], "dhead": [["Solvent: MolaLity of benzyltributylammonium chloride, mol/kg", "Liquid"], ["MolaLity of L-valine, mol/kg", "Liquid"], ["Temperature, K", null], ["Pressure, kPa", null], ["Refractive index (Na D-line)", "Liquid"]], "footer": "", "data": [[["0.001"], ["0.001"], ["298.15"], ["101"], ["1.3318", "0.0006"]], [["0.001"], ["0.001"], ["303.15"], ["101"], ["1.3317", "0.0006"]], [["0.001"], ["0.001"], ["308.15"], ["101"], ["1.3313", "0.0006"]], [["0.001"], ["0.0025"], ["298.15"], ["101"], ["1.3324", "0.0006"]], [["0.001"], ["0.0025"], ["303.15"], ["101"], ["1.332", "0.001"]], [["0.001"], ["0.0025"], ["308.15"], ["101"], ["1.3317", "0.0006"]], [["0.001"], ["0.004"], ["298.15"], ["101"], ["1.3329", "0.0006"]], [["0.001"], ["0.004"], ["303.15"], ["101"], ["1.3324", "0.0006"]], [["0.001"], ["0.004"], ["308.15"], ["101"], ["1.3321", "0.0006"]], [["0.001"], ["0.0055"], ["298.15"], ["101"], ["1.3332", "0.0006"]], [["0.001"], ["0.0055"], ["303.15"], ["101"], ["1.3327", "0.0006"]], [["0.001"], ["0.0055"], ["308.15"], ["101"], ["1.3324", "0.0006"]], [["0.001"], ["0.007"], ["298.15"], ["101"], ["1.3335", "0.0006"]], [["0.001"], ["0.007"], ["303.15"], ["101"], ["1.333", "0.001"]], [["0.001"], ["0.007"], ["308.15"], ["101"], ["1.3327", "0.0006"]], [["0.001"], ["0.0085"], ["298.15"], ["101"], ["1.3338", "0.0006"]], [["0.001"], ["0.0085"], ["303.15"], ["101"], ["1.3334", "0.0006"]], [["0.001"], ["0.0085"], ["308.15"], ["101"], ["1.333", "0.001"]], [["0.003"], ["0.001"], ["298.15"], ["101"], ["1.332", "0.001"]], [["0.003"], ["0.001"], ["303.15"], ["101"], ["1.3319", "0.0006"]], [["0.003"], ["0.001"], ["308.15"], ["101"], ["1.3316", "0.0006"]], [["0.003"], ["0.0025"], ["298.15"], ["101"], ["1.3323", "0.0006"]], [["0.003"], ["0.0025"], ["303.15"], ["101"], ["1.3323", "0.0006"]], [["0.003"], ["0.0025"], ["308.15"], ["101"], ["1.332", "0.001"]], [["0.003"], ["0.004"], ["298.15"], ["101"], ["1.3327", "0.0006"]], [["0.003"], ["0.004"], ["303.15"], ["101"], ["1.3326", "0.0006"]], [["0.003"], ["0.004"], ["308.15"], ["101"], ["1.3324", "0.0006"]], [["0.003"], ["0.0055"], ["298.15"], ["101"], ["1.333", "0.001"]], [["0.003"], ["0.0055"], ["303.15"], ["101"], ["1.3329", "0.0006"]], [["0.003"], ["0.0055"], ["308.15"], ["101"], ["1.3327", "0.0006"]], [["0.003"], ["0.007"], ["298.15"], ["101"], ["1.3333", "0.0006"]], [["0.003"], ["0.007"], ["303.15"], ["101"], ["1.3332", "0.0006"]], [["0.003"], ["0.007"], ["308.15"], ["101"], ["1.3329", "0.0006"]], [["0.003"], ["0.0085"], ["298.15"], ["101"], ["1.3335", "0.0006"]], [["0.003"], ["0.0085"], ["303.15"], ["101"], ["1.3335", "0.0006"]], [["0.003"], ["0.0085"], ["308.15"], ["101"], ["1.3332", "0.0006"]], [["0.005"], ["0.001"], ["298.15"], ["101"], ["1.3326", "0.0006"]], [["0.005"], ["0.001"], ["303.15"], ["101"], ["1.3322", "0.0006"]], [["0.005"], ["0.001"], ["308.15"], ["101"], ["1.3319", "0.0006"]], [["0.005"], ["0.0025"], ["298.15"], ["101"], ["1.3329", "0.0006"]], [["0.005"], ["0.0025"], ["303.15"], ["101"], ["1.3326", "0.0006"]], [["0.005"], ["0.0025"], ["308.15"], ["101"], ["1.3323", "0.0006"]], [["0.005"], ["0.004"], ["298.15"], ["101"], ["1.3332", "0.0006"]], [["0.005"], ["0.004"], ["303.15"], ["101"], ["1.333", "0.001"]], [["0.005"], ["0.004"], ["308.15"], ["101"], ["1.3327", "0.0006"]], [["0.005"], ["0.0055"], ["298.15"], ["101"], ["1.3335", "0.0006"]], [["0.005"], ["0.0055"], ["303.15"], ["101"], ["1.3333", "0.0006"]], [["0.005"], ["0.0055"], ["308.15"], ["101"], ["1.333", "0.001"]], [["0.005"], ["0.007"], ["298.15"], ["101"], ["1.3338", "0.0006"]], [["0.005"], ["0.007"], ["303.15"], ["101"], ["1.3336", "0.0006"]], [["0.005"], ["0.007"], ["308.15"], ["101"], ["1.3333", "0.0006"]], [["0.005"], ["0.0085"], ["298.15"], ["101"], ["1.334", "0.001"]], [["0.005"], ["0.0085"], ["303.15"], ["101"], ["1.3338", "0.0006"]], [["0.005"], ["0.0085"], ["308.15"], ["101"], ["1.3336", "0.0006"]]], "solvent": "benzyltributylammonium chloride + water", "expmeth": "Standard Abbe refractometry"}