{"dhead": [["Temperature, K", null], ["Mole fraction of 1-methyl-3-octylimidazolium tetrafluoroborate", "Liquid mixture 1"], ["Wavelength, A", "Liquid mixture 1"], ["Refractive index", "Liquid mixture 1"]], "title": "Refraction, surface tension, and speed of sound: Refractive index", "components": [{"sample": [["Source:", "commercial source"], ["Purification:", "stated by supplier"], ["Purity:", "99 mass %"], ["Purity analysis:", "molecular sieve treatment"]], "idout": "AAQxVB", "mw": "88.15", "formula": "C<SUB>5</SUB>H<SUB>12</SUB>O", "name": "pentan-2-ol"}, {"sample": [["Source:", "commercial source"], ["Initial purification:", "stated by supplier"], ["Initial purity:", "99 mass %"], ["Final purification:", "Karl Fischer titration"], ["Final purity:", "0.0158 water mass %(dried in a desiccator;dried by vacuum heating)"]], "idout": "ABCNhW", "mw": "282.13", "name": "1-methyl-3-octylimidazolium tetrafluoroborate", "formula": "C<SUB>12</SUB>H<SUB>23</SUB>BF<SUB>4</SUB>N<SUB>2</SUB>"}], "expmeth": "Minimum deviation", "footer": "", "data": [[["284.591"], ["0.01"], ["623.8"], ["1.4096", "0.0003"]], [["285.292"], ["0.01"], ["623.8"], ["1.4093", "0.0004"]], [["286.127"], ["0.012"], ["623.8"], ["1.4091", "0.0006"]], [["286.889"], ["0.013"], ["623.8"], ["1.4088", "0.0005"]], [["287.648"], ["0.015"], ["623.8"], ["1.4086", "0.0004"]], [["288.254"], ["0.016"], ["623.8"], ["1.4084", "0.0004"]], [["288.918"], ["0.016"], ["623.8"], ["1.4081", "0.0003"]], [["289.539"], ["0.019"], ["623.8"], ["1.408", "0.0004"]], [["290.07"], ["0.021"], ["623.8"], ["1.4079", "0.0004"]], [["290.614"], ["0.021"], ["623.8"], ["1.4077", "0.0004"]], [["291.076"], ["0.023"], ["623.8"], ["1.4076", "0.0004"]], [["291.547"], ["0.025"], ["623.8"], ["1.4075", "0.0004"]], [["292.022"], ["0.027"], ["623.8"], ["1.4074", "0.0004"]], [["292.463"], ["0.03"], ["623.8"], ["1.4074", "0.0004"]], [["292.844"], ["0.031"], ["623.8"], ["1.4073", "0.0004"]], [["293.146"], ["0.035"], ["623.8"], ["1.4074", "0.0004"]], [["293.406"], ["0.037"], ["623.8"], ["1.4074", "0.0004"]], [["293.632"], ["0.04"], ["623.8"], ["1.4075", "0.0003"]], [["293.782"], ["0.041"], ["623.8"], ["1.4075", "0.0003"]], [["293.887"], ["0.044"], ["623.8"], ["1.4076", "0.0004"]], [["293.993"], ["0.045"], ["623.8"], ["1.4076", "0.0003"]], [["294.086"], ["0.047"], ["623.8"], ["1.4077", "0.0004"]], [["294.186"], ["0.048"], ["623.8"], ["1.4077", "0.0003"]], [["294.268"], ["0.05"], ["623.8"], ["1.4078", "0.0019"]], [["294.349"], ["0.053"], ["623.8"], ["1.4079", "0.0004"]], [["294.424"], ["0.054"], ["623.8"], ["1.4079", "0.0004"]], [["294.488"], ["0.056"], ["623.8"], ["1.408", "0.0004"]], [["294.543"], ["0.058"], ["623.8"], ["1.4081", "0.0004"]], [["294.596"], ["0.06"], ["623.8"], ["1.4082", "0.0003"]], [["294.641"], ["0.063"], ["623.8"], ["1.4083", "0.0004"]], [["294.679"], ["0.065"], ["623.8"], ["1.4084", "0.0003"]], [["294.73"], ["0.067"], ["623.8"], ["1.4085", "0.0004"]], [["294.767"], ["0.069"], ["623.8"], ["1.4086", "0.0004"]], [["294.803"], ["0.071"], ["623.8"], ["1.4087", "0.0004"]], [["294.834"], ["0.073"], ["623.8"], ["1.4088", "0.0004"]], [["294.866"], ["0.077"], ["623.8"], ["1.409", "0.0004"]], [["294.878"], ["0.079"], ["623.8"], ["1.4091", "0.0004"]], [["294.892"], ["0.083"], ["623.8"], ["1.4093", "0.0004"]], [["294.901"], ["0.085"], ["623.8"], ["1.4094", "0.0003"]], [["294.908"], ["0.085"], ["623.8"], ["1.4094", "0.0003"]], [["294.913"], ["0.087"], ["623.8"], ["1.4095", "0.0004"]], [["294.918"], ["0.088"], ["623.8"], ["1.4095", "0.0004"]], [["294.923"], ["0.09"], ["623.8"], ["1.4096", "0.0004"]], [["294.926"], ["0.091"], ["623.8"], ["1.4097", "0.0004"]], [["294.929"], ["0.093"], ["623.8"], ["1.4098", "0.0003"]], [["294.931"], ["0.097"], ["623.8"], ["1.41", "0.0004"]], [["294.933"], ["0.099"], ["623.8"], ["1.4101", "0.0005"]]], "solvent": null, "constr": [], "ref": {"title": "Measurements of the liquid liquid phase equilibria of binary solutions of 1-methyl-3-octylimidazolium tetrafluoroborate with 1-heptanol or 2-pentanol", "full": "Zhang, X.; Cui, Z.; Yin, T.; Zheng, P.; Zhao, J. (2015) Fluid Phase Equilib. 394, 156-164."}, "phases": ["Liquid mixture 1", "Liquid mixture 2"]}