{"phases": ["Liquid mixture 1", "Liquid mixture 2"], "ref": {"full": "Lv, H.; Guo, Y.; An, X.; Sheng, W. (2010) J. Chem. Eng. Data 55(7), 2482-2488.", "title": "Liquid-Liquid Coexistence Curves of {x 1-Butyl-3-methylimidazolium Tetrafluoroborate + (1 - x) 1,3-Propanediol} and {x 1-Butyl-3-methylimidazolium Tetrafluoroborate + (1 - x) 1,4-Butanediol}"}, "constr": [], "data": [[["281.275"], ["101"], ["632.8"], ["1.4394", "0.0004"]], [["283.268"], ["101"], ["632.8"], ["1.4389", "0.0004"]], [["285.441"], ["101"], ["632.8"], ["1.4382", "0.0004"]], [["287.215"], ["101"], ["632.8"], ["1.4375", "0.0004"]], [["289.171"], ["101"], ["632.8"], ["1.4368", "0.0004"]], [["291.346"], ["101"], ["632.8"], ["1.4359", "0.0004"]], [["292.361"], ["101"], ["632.8"], ["1.4355", "0.0004"]], [["293.46"], ["101"], ["632.8"], ["1.4348", "0.0004"]], [["294.187"], ["101"], ["632.8"], ["1.4344", "0.0004"]], [["294.915"], ["101"], ["632.8"], ["1.434", "0.0004"]], [["295.303"], ["101"], ["632.8"], ["1.4337", "0.0004"]], [["295.691"], ["101"], ["632.8"], ["1.4335", "0.0004"]], [["296.081"], ["101"], ["632.8"], ["1.4332", "0.0004"]], [["296.49"], ["101"], ["632.8"], ["1.433", "0.0004"]], [["296.883"], ["101"], ["632.8"], ["1.4327", "0.0004"]], [["297.22"], ["101"], ["632.8"], ["1.4325", "0.0004"]], [["297.472"], ["101"], ["632.8"], ["1.4323", "0.0004"]], [["297.725"], ["101"], ["632.8"], ["1.4321", "0.0004"]], [["297.976"], ["101"], ["632.8"], ["1.4318", "0.0004"]], [["298.16"], ["101"], ["632.8"], ["1.4316", "0.0004"]], [["298.365"], ["101"], ["632.8"], ["1.4313", "0.0004"]], [["298.547"], ["101"], ["632.8"], ["1.4311", "0.0004"]], [["298.679"], ["101"], ["632.8"], ["1.4309", "0.0004"]], [["298.782"], ["101"], ["632.8"], ["1.4307", "0.0004"]], [["298.87"], ["101"], ["632.8"], ["1.4306", "0.0004"]], [["298.957"], ["101"], ["632.8"], ["1.4304", "0.0004"]], [["299.078"], ["101"], ["632.8"], ["1.4302", "0.0004"]], [["299.186"], ["101"], ["632.8"], ["1.4299", "0.0004"]], [["299.238"], ["101"], ["632.8"], ["1.4297", "0.0004"]], [["299.287"], ["101"], ["632.8"], ["1.4294", "0.0004"]], [["299.321"], ["101"], ["632.8"], ["1.4293", "0.0004"]], [["299.353"], ["101"], ["632.8"], ["1.4289", "0.0004"]], [["299.385"], ["101"], ["632.8"], ["1.4286", "0.0004"]], [["299.397"], ["101"], ["632.8"], ["1.4284", "0.0004"]]], "solvent": null, "footer": "", "expmeth": "Standard Abbe refractometry", "components": [{"sample": [["Source:", "commercial source"], ["Purification:", "stated by supplier"], ["Purity:", "99.5 % (basis not specified)"], ["Purity analysis:", "molecular sieve treatment"]], "mw": "76.09", "idout": "AAOgLD", "name": "propan-1,3-diol", "formula": "C<SUB>3</SUB>H<SUB>8</SUB>O<SUB>2</SUB>"}, {"sample": [["Source:", "commercial source"], ["Purification:", "stated by supplier"], ["Purity:", "99 % (basis not specified)"]], "idout": "AArYBF", "mw": "226.03", "name": "1-butyl-3-methylimidazolium tetrafluoroborate", "formula": "C<SUB>8</SUB>H<SUB>15</SUB>BF<SUB>4</SUB>N<SUB>2</SUB>"}], "title": "Refraction, surface tension, and speed of sound: Refractive index", "dhead": [["Temperature, K", null], ["Pressure, kPa", null], ["Wavelength, A", "Liquid mixture 1"], ["Refractive index", "Liquid mixture 1"]]}