{"phases": ["Liquid mixture 2", "Liquid mixture 1"], "constr": [], "ref": {"title": "The liquid liquid coexistence of binary mixtures of the room temperature ionic liquid 1-methyl-3-hexylimidazolium tetrafluoroborate with alcohols", "full": "Wagner, M.; Stanga, O.; Schroer, W. (2004) Phys. Chem. Chem. Phys. 6(18), 4421-4431."}, "expmeth": "minimum beam deflection method", "data": [[["305.33"], ["101.325"], ["1.41167", "0.0006"]], [["307.19"], ["101.325"], ["1.41046", "0.0006"]], [["309.52"], ["101.325"], ["1.40897", "0.0006"]], [["310.93"], ["101.325"], ["1.40791", "0.0006"]], [["312.26"], ["101.325"], ["1.40686", "0.0006"]], [["313.62"], ["101.325"], ["1.40558", "0.0006"]], [["314.86"], ["101.325"], ["1.40442", "0.0006"]], [["315.45"], ["101.325"], ["1.40379", "0.0006"]], [["316.07"], ["101.325"], ["1.40305", "0.0006"]], [["316.39"], ["101.325"], ["1.40246", "0.0006"]], [["316.69"], ["101.325"], ["1.40198", "0.0006"]], [["316.92"], ["101.325"], ["1.4014", "0.0006"]], [["317.09"], ["101.325"], ["1.40094", "0.0006"]], [["317.2"], ["101.325"], ["1.40059", "0.0006"]], [["317.24"], ["101.325"], ["1.40026", "0.0006"]], [["317.28"], ["101.325"], ["1.40004", "0.00061"]], [["317.3"], ["101.325"], ["1.39971", "0.00062"]], [["317.315"], ["101.325"], ["1.39949", "0.00062"]]], "solvent": null, "footer": "", "dhead": [["Temperature, K", null], ["Pressure, kPa", null], ["Refractive index (Na D-line)", "Liquid mixture 2"]], "components": [{"formula": "C<SUB>5</SUB>H<SUB>12</SUB>O", "name": "pentan-2-ol", "idout": "AAQxVB", "mw": "88.15", "sample": [["Source:", "commercial source"], ["Purification:", "stated by supplier"], ["Purity:", "99 % (basis not specified)"], ["Purity analysis:", "none used"]]}, {"sample": [["Source:", "commercial source"], ["Purity analysis:", "dried in a desiccator;dried by vacuum heating"]], "formula": "C<SUB>10</SUB>H<SUB>19</SUB>BF<SUB>4</SUB>N<SUB>2</SUB>", "name": "1-hexyl-3-methylimidazolium tetrafluoroborate", "idout": "AAwscj", "mw": "254.08"}], "title": "Refraction, surface tension, and speed of sound: Refractive index (Na D-line)"}