{"components": [{"name": "water", "formula": "H<SUB>2</SUB>O", "idout": "AADYJk", "mw": "18.02", "sample": [["Source:", "commercial source"], ["Purification:", "estimated by the compiler"], ["Purity:", "99.9 % (basis not specified)(fractional distillation)"]]}, {"sample": [["Source:", "commercial source"], ["Initial purification:", "stated by supplier"], ["Initial purity:", "99.99 % (basis not specified)"], ["Final purification:", "estimation;estimation"], ["Final purity:", "0.00001 halide impurity mol %;0.00001 water mass %"]], "idout": "ABChJv", "mw": "284.19", "name": "1-butyl-3-methylimidazolium hexafluorophosphate", "formula": "C<SUB>8</SUB>H<SUB>15</SUB>F<SUB>6</SUB>N<SUB>2</SUB>P"}], "title": "Refraction, surface tension, and speed of sound: Refractive index (Na D-line)", "dhead": [["Temperature, K", null], ["Mole fraction of 1-butyl-3-methylimidazolium hexafluorophosphate", "Liquid"], ["Pressure, kPa", null], ["Refractive index (Na D-line)", "Liquid"]], "solvent": null, "data": [[["298.15"], ["0"], ["101"], ["1.3329", "0.0012"]], [["298.15"], ["0.00031"], ["101"], ["1.3332", "0.0012"]], [["298.15"], ["0.00063"], ["101"], ["1.3335", "0.0012"]], [["298.15"], ["0.00095"], ["101"], ["1.3339", "0.0012"]], [["298.15"], ["0.00129"], ["101"], ["1.3342", "0.0012"]], [["303.15"], ["0"], ["101"], ["1.3322", "0.0012"]], [["303.15"], ["0.00031"], ["101"], ["1.3326", "0.0012"]], [["303.15"], ["0.00063"], ["101"], ["1.3329", "0.0012"]], [["303.15"], ["0.00095"], ["101"], ["1.3333", "0.0012"]], [["303.15"], ["0.00129"], ["101"], ["1.3337", "0.0012"]], [["308.15"], ["0"], ["101"], ["1.3319", "0.0012"]], [["308.15"], ["0.00031"], ["101"], ["1.3321", "0.0012"]], [["308.15"], ["0.00063"], ["101"], ["1.3325", "0.0012"]], [["308.15"], ["0.00095"], ["101"], ["1.3328", "0.0012"]], [["308.15"], ["0.00129"], ["101"], ["1.3332", "0.0012"]], [["313.15"], ["0"], ["101"], ["1.331", "0.0012"]], [["313.15"], ["0.00031"], ["101"], ["1.3315", "0.0012"]], [["313.15"], ["0.00063"], ["101"], ["1.3319", "0.0012"]], [["313.15"], ["0.00095"], ["101"], ["1.3323", "0.0012"]], [["313.15"], ["0.00129"], ["101"], ["1.3327", "0.0012"]], [["318.15"], ["0"], ["101"], ["1.3308", "0.0012"]], [["318.15"], ["0.00031"], ["101"], ["1.331", "0.0012"]], [["318.15"], ["0.00063"], ["101"], ["1.3313", "0.0012"]], [["318.15"], ["0.00095"], ["101"], ["1.3317", "0.0012"]], [["318.15"], ["0.00129"], ["101"], ["1.3321", "0.0012"]]], "footer": "", "expmeth": "Standard Abbe refractometry", "ref": {"title": "Dilute aqueous 1-butyl-3-methylimidazolium hexafluorophosphate: properties and solvatochromic probe behavior", "full": "Ali, M.; Sarkar, A.; Tariq, M.; Ali, A.; Pandey, S. (2007) Green Chem. 9, 1252-1258."}, "constr": [], "phases": ["Liquid"]}