{"ref": {"title": "Physicochemical properties of N-alkylpyridine trifluoroacetate ionic liquids [CnPy][TFA] (n = 2-6)", "full": "Song, Zongren; Yan, Qiang; Xia, Meichen; Qi, Xiaochen; Zhang, Zhiheng; Wei, Jie; Fang, Dawei; Ma, Xiaoxue (2021) J. Chem. Thermodyn. 155, 106366."}, "constr": [], "phases": ["Liquid"], "title": "Refraction, surface tension, and speed of sound: Refractive index (Na D-line)", "components": [{"mw": "263.26", "idout": "AAygfU", "formula": "C<SUB>12</SUB>H<SUB>16</SUB>F<SUB>3</SUB>NO<SUB>2</SUB>", "name": "1-amylpyridinium trifluoroacetate", "sample": [["Source:", "synthesized by the authors"], ["Purification:", "NMR (proton);Karl Fischer titration;ion-selective electrode"], ["Purity:", "99 mass %;0.05 water mass %;0.05 halide impurity mass %(dried by vacuum heating)"]]}, {"mw": "18.02", "idout": "AADYJk", "formula": "H<SUB>2</SUB>O", "name": "water", "sample": [["Source:", "commercial source"], ["Purification:", "estimated by the compiler"], ["Purity:", "99.8 mass %(fractional distillation)"]]}], "dhead": [["Weight fraction of water", "Liquid"], ["Temperature, K", null], ["Pressure, kPa", null], ["Refractive index (Na D-line)", "Liquid"]], "footer": "", "data": [[["0.0018"], ["293.15"], ["100"], ["1.4927", "0.0032"]], [["0.0018"], ["298.15"], ["100"], ["1.4915", "0.0032"]], [["0.0018"], ["303.15"], ["100"], ["1.4902", "0.0032"]], [["0.0018"], ["308.15"], ["100"], ["1.489", "0.0032"]], [["0.0018"], ["313.15"], ["100"], ["1.4877", "0.0032"]], [["0.0018"], ["318.15"], ["100"], ["1.4865", "0.0032"]], [["0.0018"], ["323.15"], ["100"], ["1.4853", "0.0032"]], [["0.0018"], ["328.15"], ["100"], ["1.4841", "0.0032"]], [["0.0018"], ["333.15"], ["100"], ["1.4831", "0.0032"]], [["0.0018"], ["338.15"], ["100"], ["1.4816", "0.0032"]], [["0.0018"], ["343.15"], ["100"], ["1.4803", "0.0032"]], [["0.004"], ["293.15"], ["100"], ["1.4907", "0.0033"]], [["0.004"], ["298.15"], ["100"], ["1.4894", "0.0032"]], [["0.004"], ["303.15"], ["100"], ["1.4883", "0.0032"]], [["0.004"], ["308.15"], ["100"], ["1.487", "0.0032"]], [["0.004"], ["313.15"], ["100"], ["1.4857", "0.0032"]], [["0.004"], ["318.15"], ["100"], ["1.4845", "0.0032"]], [["0.004"], ["323.15"], ["100"], ["1.4833", "0.0032"]], [["0.004"], ["328.15"], ["100"], ["1.4821", "0.0032"]], [["0.004"], ["333.15"], ["100"], ["1.4811", "0.0032"]], [["0.004"], ["338.15"], ["100"], ["1.4796", "0.0032"]], [["0.004"], ["343.15"], ["100"], ["1.4783", "0.0032"]], [["0.0062"], ["293.15"], ["100"], ["1.4886", "0.0032"]], [["0.0062"], ["298.15"], ["100"], ["1.4873", "0.0032"]], [["0.0062"], ["303.15"], ["100"], ["1.4862", "0.0032"]], [["0.0062"], ["308.15"], ["100"], ["1.4849", "0.0032"]], [["0.0062"], ["313.15"], ["100"], ["1.4836", "0.0032"]], [["0.0062"], ["318.15"], ["100"], ["1.4824", "0.0032"]], [["0.0062"], ["323.15"], ["100"], ["1.4812", "0.0032"]], [["0.0062"], ["328.15"], ["100"], ["1.48", "0.0032"]], [["0.0062"], ["333.15"], ["100"], ["1.479", "0.0032"]], [["0.0062"], ["338.15"], ["100"], ["1.4775", "0.0032"]], [["0.0062"], ["343.15"], ["100"], ["1.4762", "0.0032"]], [["0.0094"], ["293.15"], ["100"], ["1.4855", "0.0032"]], [["0.0094"], ["298.15"], ["100"], ["1.4839", "0.0032"]], [["0.0094"], ["303.15"], ["100"], ["1.4829", "0.0032"]], [["0.0094"], ["308.15"], ["100"], ["1.4819", "0.0032"]], [["0.0094"], ["313.15"], ["100"], ["1.4805", "0.0032"]], [["0.0094"], ["318.15"], ["100"], ["1.4791", "0.0032"]], [["0.0094"], ["323.15"], ["100"], ["1.478", "0.0032"]], [["0.0094"], ["328.15"], ["100"], ["1.4767", "0.0032"]], [["0.0094"], ["333.15"], ["100"], ["1.4757", "0.0032"]], [["0.0094"], ["338.15"], ["100"], ["1.4742", "0.0032"]], [["0.0094"], ["343.15"], ["100"], ["1.4731", "0.0032"]], [["0.0105"], ["293.15"], ["100"], ["1.4844", "0.0032"]], [["0.0105"], ["298.15"], ["100"], ["1.4829", "0.0032"]], [["0.0105"], ["303.15"], ["100"], ["1.4819", "0.0032"]], [["0.0105"], ["308.15"], ["100"], ["1.4809", "0.0032"]], [["0.0105"], ["313.15"], ["100"], ["1.4795", "0.0032"]], [["0.0105"], ["318.15"], ["100"], ["1.4781", "0.0032"]], [["0.0105"], ["323.15"], ["100"], ["1.477", "0.0032"]], [["0.0105"], ["328.15"], ["100"], ["1.4757", "0.0032"]], [["0.0105"], ["333.15"], ["100"], ["1.4747", "0.0032"]], [["0.0105"], ["338.15"], ["100"], ["1.4732", "0.0032"]], [["0.0105"], ["343.15"], ["100"], ["1.4721", "0.0032"]], [["0.0132"], ["293.15"], ["100"], ["1.4818", "0.0032"]], [["0.0132"], ["298.15"], ["100"], ["1.4802", "0.0032"]], [["0.0132"], ["303.15"], ["100"], ["1.4792", "0.0032"]], [["0.0132"], ["308.15"], ["100"], ["1.4782", "0.0032"]], [["0.0132"], ["313.15"], ["100"], ["1.4769", "0.0032"]], [["0.0132"], ["318.15"], ["100"], ["1.4752", "0.0032"]], [["0.0132"], ["323.15"], ["100"], ["1.4744", "0.0032"]], [["0.0132"], ["328.15"], ["100"], ["1.473", "0.0032"]], [["0.0132"], ["333.15"], ["100"], ["1.472", "0.0032"]], [["0.0132"], ["338.15"], ["100"], ["1.4705", "0.0032"]], [["0.0132"], ["343.15"], ["100"], ["1.4694", "0.0032"]]], "solvent": null, "expmeth": "Standard Abbe refractometry"}