{"title": "Refraction, surface tension, and speed of sound: Refractive index", "components": [{"sample": [["Source:", "commercial source"], ["Purification:", "stated by supplier"], ["Purity:", "99 % (basis not specified)"], ["Purity analysis:", "molecular sieve treatment"]], "idout": "AARRzH", "mw": "90.12", "formula": "C<SUB>4</SUB>H<SUB>10</SUB>O<SUB>2</SUB>", "name": "1,4-butanediol"}, {"idout": "AArYBF", "mw": "226.03", "formula": "C<SUB>8</SUB>H<SUB>15</SUB>BF<SUB>4</SUB>N<SUB>2</SUB>", "name": "1-butyl-3-methylimidazolium tetrafluoroborate", "sample": [["Source:", "commercial source"], ["Purification:", "stated by supplier"], ["Purity:", "99 % (basis not specified)"]]}], "dhead": [["Weight fraction of 1-butyl-3-methylimidazolium tetrafluoroborate", "Liquid"], ["Temperature, K", null], ["Pressure, kPa", null], ["Wavelength, A", "Liquid"], ["Refractive index", "Liquid"]], "footer": "", "data": [[["0.094"], ["306.251"], ["101"], ["632.8"], ["1.4367", "0.0004"]], [["0.094"], ["307.203"], ["101"], ["632.8"], ["1.4364", "0.0004"]], [["0.094"], ["308.24"], ["101"], ["632.8"], ["1.4361", "0.0004"]], [["0.094"], ["309.231"], ["101"], ["632.8"], ["1.4358", "0.0004"]], [["0.094"], ["310.169"], ["101"], ["632.8"], ["1.4355", "0.0004"]], [["0.094"], ["312.271"], ["101"], ["632.8"], ["1.4349", "0.0004"]], [["0.094"], ["314.325"], ["101"], ["632.8"], ["1.4343", "0.0004"]], [["0.19"], ["309.545"], ["101"], ["632.8"], ["1.4322", "0.0004"]], [["0.19"], ["311.248"], ["101"], ["632.8"], ["1.4317", "0.0004"]], [["0.19"], ["312.778"], ["101"], ["632.8"], ["1.4312", "0.0004"]], [["0.19"], ["314.291"], ["101"], ["632.8"], ["1.4308", "0.0004"]], [["0.19"], ["316.135"], ["101"], ["632.8"], ["1.4302", "0.0004"]], [["0.19"], ["317.296"], ["101"], ["632.8"], ["1.4299", "0.0004"]], [["0.286"], ["309.877"], ["101"], ["632.8"], ["1.4289", "0.0004"]], [["0.286"], ["311.224"], ["101"], ["632.8"], ["1.4285", "0.0004"]], [["0.286"], ["312.995"], ["101"], ["632.8"], ["1.4279", "0.0004"]], [["0.286"], ["314.394"], ["101"], ["632.8"], ["1.4275", "0.0004"]], [["0.286"], ["315.792"], ["101"], ["632.8"], ["1.4271", "0.0004"]], [["0.286"], ["317.348"], ["101"], ["632.8"], ["1.4266", "0.0004"]], [["0.381"], ["309.264"], ["101"], ["632.8"], ["1.4264", "0.0004"]], [["0.381"], ["310.639"], ["101"], ["632.8"], ["1.426", "0.0004"]], [["0.381"], ["312.315"], ["101"], ["632.8"], ["1.4255", "0.0004"]], [["0.381"], ["313.793"], ["101"], ["632.8"], ["1.4251", "0.0004"]], [["0.381"], ["315.655"], ["101"], ["632.8"], ["1.4246", "0.0004"]], [["0.381"], ["317.383"], ["101"], ["632.8"], ["1.4241", "0.0004"]], [["0.484"], ["306.699"], ["101"], ["632.8"], ["1.4247", "0.0004"]], [["0.484"], ["308.217"], ["101"], ["632.8"], ["1.4243", "0.0004"]], [["0.484"], ["309.725"], ["101"], ["632.8"], ["1.4238", "0.0004"]], [["0.484"], ["311.331"], ["101"], ["632.8"], ["1.4234", "0.0004"]], [["0.484"], ["312.876"], ["101"], ["632.8"], ["1.4229", "0.0004"]], [["0.484"], ["314.312"], ["101"], ["632.8"], ["1.4225", "0.0004"]], [["0.579"], ["304.22"], ["101"], ["632.8"], ["1.4237", "0.0004"]], [["0.579"], ["306.241"], ["101"], ["632.8"], ["1.4231", "0.0004"]], [["0.579"], ["308.275"], ["101"], ["632.8"], ["1.4225", "0.0004"]], [["0.579"], ["310.223"], ["101"], ["632.8"], ["1.422", "0.0004"]], [["0.579"], ["312.195"], ["101"], ["632.8"], ["1.4214", "0.0004"]], [["0.579"], ["314.294"], ["101"], ["632.8"], ["1.4208", "0.0004"]], [["0.686"], ["303.255"], ["101"], ["632.8"], ["1.4223", "0.0004"]], [["0.686"], ["305.261"], ["101"], ["632.8"], ["1.4218", "0.0004"]], [["0.686"], ["307.292"], ["101"], ["632.8"], ["1.4212", "0.0004"]], [["0.686"], ["309.202"], ["101"], ["632.8"], ["1.4207", "0.0004"]], [["0.686"], ["311.217"], ["101"], ["632.8"], ["1.4202", "0.0004"]], [["0.686"], ["313.283"], ["101"], ["632.8"], ["1.4196", "0.0004"]], [["0.786"], ["301.241"], ["101"], ["632.8"], ["1.4216", "0.0004"]], [["0.786"], ["303.162"], ["101"], ["632.8"], ["1.4211", "0.0004"]], [["0.786"], ["304.235"], ["101"], ["632.8"], ["1.4208", "0.0004"]], [["0.786"], ["307.212"], ["101"], ["632.8"], ["1.42", "0.0004"]], [["0.786"], ["309.241"], ["101"], ["632.8"], ["1.4195", "0.0004"]], [["0.786"], ["311.854"], ["101"], ["632.8"], ["1.4188", "0.0004"]], [["0.894"], ["296.244"], ["101"], ["632.8"], ["1.4221", "0.0004"]], [["0.894"], ["298.195"], ["101"], ["632.8"], ["1.4216", "0.0004"]], [["0.894"], ["300.129"], ["101"], ["632.8"], ["1.4211", "0.0004"]], [["0.894"], ["302.155"], ["101"], ["632.8"], ["1.4206", "0.0004"]], [["0.894"], ["304.141"], ["101"], ["632.8"], ["1.42", "0.0004"]], [["0.894"], ["306.686"], ["101"], ["632.8"], ["1.4194", "0.0004"]]], "solvent": null, "expmeth": "Standard Abbe refractometry", "ref": {"title": "Liquid-Liquid Coexistence Curves of {x 1-Butyl-3-methylimidazolium Tetrafluoroborate + (1 - x) 1,3-Propanediol} and {x 1-Butyl-3-methylimidazolium Tetrafluoroborate + (1 - x) 1,4-Butanediol}", "full": "Lv, H.; Guo, Y.; An, X.; Sheng, W. (2010) J. Chem. Eng. Data 55(7), 2482-2488."}, "constr": [], "phases": ["Liquid"]}