{"components": [{"formula": "H<SUB>2</SUB>O", "name": "water", "idout": "AADYJk", "mw": "18.02", "sample": [["Source:", "commercial source"], ["Purification:", "estimated by the compiler"], ["Purity:", "99.8 mass %(fractional distillation)"]]}, {"sample": [["Source:", "synthesized by the authors"], ["Purification:", "HPLC"], ["Purity:", "99 mass %(dried by vacuum heating)"]], "name": "1-butylpyridinium dicyanamide", "formula": "C<SUB>11</SUB>H<SUB>14</SUB>N<SUB>4</SUB>", "idout": "AAmufZ", "mw": "202.26"}], "title": "Refraction, surface tension, and speed of sound: Refractive index (Na D-line)", "dhead": [["Weight fraction of water", "Liquid"], ["Temperature, K", null], ["Pressure, kPa", null], ["Refractive index (Na D-line)", "Liquid"]], "data": [[["0.00176"], ["303.15"], ["100"], ["1.5323", "0.003"]], [["0.00176"], ["308.15"], ["100"], ["1.5306", "0.003"]], [["0.00176"], ["313.15"], ["100"], ["1.5283", "0.003"]], [["0.00176"], ["318.15"], ["100"], ["1.5267", "0.003"]], [["0.00176"], ["323.15"], ["100"], ["1.525", "0.003"]], [["0.00176"], ["328.15"], ["100"], ["1.5234", "0.003"]], [["0.00176"], ["333.15"], ["100"], ["1.5214", "0.003"]], [["0.00176"], ["338.15"], ["100"], ["1.5199", "0.003"]], [["0.00319"], ["303.15"], ["100"], ["1.5321", "0.003"]], [["0.00319"], ["308.15"], ["100"], ["1.5303", "0.003"]], [["0.00319"], ["313.15"], ["100"], ["1.5281", "0.003"]], [["0.00319"], ["318.15"], ["100"], ["1.5265", "0.003"]], [["0.00319"], ["323.15"], ["100"], ["1.5248", "0.003"]], [["0.00319"], ["328.15"], ["100"], ["1.5232", "0.003"]], [["0.00319"], ["333.15"], ["100"], ["1.5212", "0.003"]], [["0.00319"], ["338.15"], ["100"], ["1.5197", "0.003"]], [["0.00477"], ["303.15"], ["100"], ["1.5319", "0.003"]], [["0.00477"], ["308.15"], ["100"], ["1.5301", "0.003"]], [["0.00477"], ["313.15"], ["100"], ["1.5279", "0.003"]], [["0.00477"], ["318.15"], ["100"], ["1.5262", "0.003"]], [["0.00477"], ["323.15"], ["100"], ["1.5245", "0.003"]], [["0.00477"], ["328.15"], ["100"], ["1.523", "0.003"]], [["0.00477"], ["333.15"], ["100"], ["1.5209", "0.003"]], [["0.00477"], ["338.15"], ["100"], ["1.5194", "0.003"]], [["0.00627"], ["303.15"], ["100"], ["1.5317", "0.003"]], [["0.00627"], ["308.15"], ["100"], ["1.5298", "0.003"]], [["0.00627"], ["313.15"], ["100"], ["1.5277", "0.003"]], [["0.00627"], ["318.15"], ["100"], ["1.526", "0.003"]], [["0.00627"], ["323.15"], ["100"], ["1.5243", "0.003"]], [["0.00627"], ["328.15"], ["100"], ["1.5227", "0.003"]], [["0.00627"], ["333.15"], ["100"], ["1.5207", "0.003"]], [["0.00627"], ["338.15"], ["100"], ["1.5192", "0.003"]], [["0.0078"], ["303.15"], ["100"], ["1.5315", "0.003"]], [["0.0078"], ["308.15"], ["100"], ["1.5296", "0.003"]], [["0.0078"], ["313.15"], ["100"], ["1.5275", "0.003"]], [["0.0078"], ["318.15"], ["100"], ["1.5258", "0.003"]], [["0.0078"], ["323.15"], ["100"], ["1.5241", "0.003"]], [["0.0078"], ["328.15"], ["100"], ["1.5225", "0.003"]], [["0.0078"], ["333.15"], ["100"], ["1.5204", "0.003"]], [["0.0078"], ["338.15"], ["100"], ["1.5189", "0.003"]]], "solvent": null, "footer": "", "expmeth": "Standard Abbe refractometry", "constr": [], "ref": {"full": "Xing, N.; Dai, B.; Ma, X.; Wei, J.; Pan, Y.; Guan, W. (2016) J. Chem. Thermodyn. 95, 21-25.", "title": "The molar surface Gibbs energy and prediction of surface tension of [Cnpy][DCA] (n = 3,4,5)"}, "phases": ["Liquid"]}