{"constr": [], "ref": {"title": "Densities, Ultrasonic Speeds, Viscosities, Refractive Indices, and Excess Properties of 1-Butyl-3-methylimidazolium Tetrafluoroborate + N-Methylacetamide Binary Mixtures at Different Temperatures", "full": "Chaudhary, N.; Nain, A. K. (2020) J. Chem. Eng. Data 65(4), 1447-1459."}, "phases": ["Liquid"], "dhead": [["Temperature, K", null], ["Mole fraction of 1-butyl-3-methylimidazolium tetrafluoroborate", "Liquid"], ["Pressure, kPa", null], ["Refractive index (Na D-line)", "Liquid"]], "components": [{"name": "1-butyl-3-methylimidazolium tetrafluoroborate", "formula": "C<SUB>8</SUB>H<SUB>15</SUB>BF<SUB>4</SUB>N<SUB>2</SUB>", "idout": "AArYBF", "mw": "226.03", "sample": [["Source:", "commercial source"], ["Purification:", "stated by supplier"], ["Purity:", "99 mass %"], ["Purity analysis:", "dried by vacuum heating;molecular sieve treatment"]]}, {"sample": [["Source:", "commercial source"], ["Purification:", "gas chromatography"], ["Purity:", "99.5 mass %"], ["Purity analysis:", "fractional distillation;molecular sieve treatment"]], "formula": "C<SUB>3</SUB>H<SUB>7</SUB>NO", "name": "N-methylacetamide", "idout": "AAOCDM", "mw": "73.09"}], "title": "Refraction, surface tension, and speed of sound: Refractive index (Na D-line)", "expmeth": "Standard Abbe refractometry", "data": [[["293.15"], ["0"], ["101"], ["1.43385", "0.00085"]], [["293.15"], ["0.0711"], ["101"], ["1.43322", "0.00086"]], [["293.15"], ["0.1409"], ["101"], ["1.4326", "0.00086"]], [["293.15"], ["0.2042"], ["101"], ["1.43203", "0.00086"]], [["293.15"], ["0.27"], ["101"], ["1.43144", "0.00086"]], [["293.15"], ["0.3564"], ["101"], ["1.43063", "0.00086"]], [["293.15"], ["0.4343"], ["101"], ["1.42986", "0.00086"]], [["293.15"], ["0.4992"], ["101"], ["1.42917", "0.00086"]], [["293.15"], ["0.5552"], ["101"], ["1.42856", "0.00086"]], [["293.15"], ["0.6389"], ["101"], ["1.42759", "0.00086"]], [["293.15"], ["0.714"], ["101"], ["1.42667", "0.00087"]], [["293.15"], ["0.7774"], ["101"], ["1.42587", "0.00087"]], [["293.15"], ["0.8495"], ["101"], ["1.42494", "0.00087"]], [["293.15"], ["0.9302"], ["101"], ["1.42388", "0.00087"]], [["293.15"], ["1"], ["101"], ["1.42295", "0.00087"]], [["298.15"], ["0"], ["101"], ["1.43266", "0.00085"]], [["298.15"], ["0.0711"], ["101"], ["1.43204", "0.00086"]], [["298.15"], ["0.1409"], ["101"], ["1.43139", "0.00086"]], [["298.15"], ["0.2042"], ["101"], ["1.43079", "0.00086"]], [["298.15"], ["0.27"], ["101"], ["1.43018", "0.00086"]], [["298.15"], ["0.3564"], ["101"], ["1.42934", "0.00086"]], [["298.15"], ["0.4343"], ["101"], ["1.42855", "0.00086"]], [["298.15"], ["0.4992"], ["101"], ["1.42784", "0.00086"]], [["298.15"], ["0.5552"], ["101"], ["1.42721", "0.00086"]], [["298.15"], ["0.6389"], ["101"], ["1.42622", "0.00086"]], [["298.15"], ["0.714"], ["101"], ["1.42528", "0.00087"]], [["298.15"], ["0.7774"], ["101"], ["1.42446", "0.00087"]], [["298.15"], ["0.8495"], ["101"], ["1.4235", "0.00087"]], [["298.15"], ["0.9302"], ["101"], ["1.4224", "0.00087"]], [["298.15"], ["1"], ["101"], ["1.42143", "0.00087"]], [["303.15"], ["0"], ["101"], ["1.43138", "0.00085"]], [["303.15"], ["0.0711"], ["101"], ["1.43082", "0.00086"]], [["303.15"], ["0.1409"], ["101"], ["1.43018", "0.00086"]], [["303.15"], ["0.2042"], ["101"], ["1.42959", "0.00086"]], [["303.15"], ["0.27"], ["101"], ["1.42898", "0.00086"]], [["303.15"], ["0.3564"], ["101"], ["1.42815", "0.00086"]], [["303.15"], ["0.4343"], ["101"], ["1.42737", "0.00086"]], [["303.15"], ["0.4992"], ["101"], ["1.42667", "0.00086"]], [["303.15"], ["0.5552"], ["101"], ["1.42604", "0.00086"]], [["303.15"], ["0.6389"], ["101"], ["1.42504", "0.00086"]], [["303.15"], ["0.714"], ["101"], ["1.42409", "0.00087"]], [["303.15"], ["0.7774"], ["101"], ["1.42326", "0.00087"]], [["303.15"], ["0.8495"], ["101"], ["1.42228", "0.00087"]], [["303.15"], ["0.9302"], ["101"], ["1.42116", "0.00087"]], [["303.15"], ["1"], ["101"], ["1.42016", "0.00087"]], [["308.15"], ["0"], ["101"], ["1.43003", "0.00085"]], [["308.15"], ["0.0711"], ["101"], ["1.42957", "0.00086"]], [["308.15"], ["0.1409"], ["101"], ["1.42897", "0.00086"]], [["308.15"], ["0.2042"], ["101"], ["1.42842", "0.00086"]], [["308.15"], ["0.27"], ["101"], ["1.42783", "0.00086"]], [["308.15"], ["0.3564"], ["101"], ["1.42703", "0.00086"]], [["308.15"], ["0.4343"], ["101"], ["1.42627", "0.00086"]], [["308.15"], ["0.4992"], ["101"], ["1.42559", "0.00086"]], [["308.15"], ["0.5552"], ["101"], ["1.42496", "0.00086"]], [["308.15"], ["0.6389"], ["101"], ["1.42398", "0.00086"]], [["308.15"], ["0.714"], ["101"], ["1.42303", "0.00087"]], [["308.15"], ["0.7774"], ["101"], ["1.4222", "0.00087"]], [["308.15"], ["0.8495"], ["101"], ["1.42122", "0.00087"]], [["308.15"], ["0.9302"], ["101"], ["1.42008", "0.00087"]], [["308.15"], ["1"], ["101"], ["1.41906", "0.00087"]], [["313.15"], ["0"], ["101"], ["1.42867", "0.00085"]], [["313.15"], ["0.0711"], ["101"], ["1.42832", "0.00086"]], [["313.15"], ["0.1409"], ["101"], ["1.42781", "0.00086"]], [["313.15"], ["0.2042"], ["101"], ["1.42729", "0.00086"]], [["313.15"], ["0.27"], ["101"], ["1.42675", "0.00086"]], [["313.15"], ["0.3564"], ["101"], ["1.42601", "0.00086"]], [["313.15"], ["0.4343"], ["101"], ["1.42529", "0.00086"]], [["313.15"], ["0.4992"], ["101"], ["1.42463", "0.00086"]], [["313.15"], ["0.5552"], ["101"], ["1.42403", "0.00086"]], [["313.15"], ["0.6389"], ["101"], ["1.42307", "0.00086"]], [["313.15"], ["0.714"], ["101"], ["1.42213", "0.00087"]], [["313.15"], ["0.7774"], ["101"], ["1.4213", "0.00087"]], [["313.15"], ["0.8495"], ["101"], ["1.42031", "0.00087"]], [["313.15"], ["0.9302"], ["101"], ["1.41917", "0.00087"]], [["313.15"], ["1"], ["101"], ["1.41814", "0.00087"]], [["318.15"], ["0"], ["101"], ["1.42725", "0.00085"]], [["318.15"], ["0.0711"], ["101"], ["1.42705", "0.00086"]], [["318.15"], ["0.1409"], ["101"], ["1.42663", "0.00086"]], [["318.15"], ["0.2042"], ["101"], ["1.42619", "0.00086"]], [["318.15"], ["0.27"], ["101"], ["1.42571", "0.00086"]], [["318.15"], ["0.3564"], ["101"], ["1.42504", "0.00086"]], [["318.15"], ["0.4343"], ["101"], ["1.42437", "0.00086"]], [["318.15"], ["0.4992"], ["101"], ["1.42376", "0.00086"]], [["318.15"], ["0.5552"], ["101"], ["1.42319", "0.00086"]], [["318.15"], ["0.6389"], ["101"], ["1.42227", "0.00086"]], [["318.15"], ["0.714"], ["101"], ["1.42136", "0.00087"]], [["318.15"], ["0.7774"], ["101"], ["1.42054", "0.00087"]], [["318.15"], ["0.8495"], ["101"], ["1.41956", "0.00087"]], [["318.15"], ["0.9302"], ["101"], ["1.41843", "0.00087"]], [["318.15"], ["1"], ["101"], ["1.41739", "0.00087"]]], "solvent": null, "footer": ""}