{"phases": ["Liquid mixture 2", "Liquid mixture 1"], "constr": [], "ref": {"title": "(Liquid + liquid) phase equilibria of binary mixtures 1-butyl-3-methylimidazolium tetrafluoroborate and tert-butanol or 1,2-butanediol", "full": "Zheng, P.; Zhang, X.; Yin, T.; Shen, W. (2016) J. Chem. Thermodyn. 95, 26-34."}, "expmeth": "Standard Abbe refractometry", "data": [[["319.697"], ["114"], ["632.8"], ["1.3944", "0.0004"]], [["320.859"], ["114"], ["632.8"], ["1.3933", "0.0004"]], [["321.986"], ["114"], ["632.8"], ["1.3922", "0.0004"]], [["323.142"], ["114"], ["632.8"], ["1.3911", "0.0004"]], [["323.985"], ["114"], ["632.8"], ["1.3901", "0.0004"]], [["324.831"], ["114"], ["632.8"], ["1.3892", "0.0004"]], [["325.652"], ["114"], ["632.8"], ["1.3881", "0.0004"]], [["326.272"], ["114"], ["632.8"], ["1.3875", "0.0004"]], [["326.379"], ["114"], ["632.8"], ["1.3874", "0.0004"]], [["326.847"], ["114"], ["632.8"], ["1.3869", "0.0004"]], [["327.158"], ["114"], ["632.8"], ["1.3864", "0.0004"]], [["327.468"], ["114"], ["632.8"], ["1.3859", "0.0004"]], [["327.904"], ["114"], ["632.8"], ["1.3854", "0.0004"]], [["328.221"], ["114"], ["632.8"], ["1.3849", "0.0004"]], [["328.499"], ["114"], ["632.8"], ["1.3844", "0.0004"]], [["328.754"], ["114"], ["632.8"], ["1.3839", "0.0004"]], [["328.989"], ["114"], ["632.8"], ["1.3835", "0.0004"]], [["329.222"], ["114"], ["632.8"], ["1.3831", "0.0004"]], [["329.424"], ["114"], ["632.8"], ["1.3825", "0.0004"]], [["329.558"], ["114"], ["632.8"], ["1.3824", "0.0004"]], [["329.672"], ["114"], ["632.8"], ["1.3821", "0.0004"]], [["329.798"], ["114"], ["632.8"], ["1.3817", "0.0004"]], [["329.916"], ["114"], ["632.8"], ["1.3814", "0.0004"]], [["330.011"], ["114"], ["632.8"], ["1.3812", "0.0004"]], [["330.115"], ["114"], ["632.8"], ["1.3809", "0.0004"]], [["330.186"], ["114"], ["632.8"], ["1.3806", "0.0004"]], [["330.25"], ["114"], ["632.8"], ["1.3804", "0.0004"]], [["330.286"], ["114"], ["632.8"], ["1.3801", "0.0004"]], [["330.338"], ["114"], ["632.8"], ["1.3799", "0.0005"]], [["330.382"], ["114"], ["632.8"], ["1.3796", "0.0005"]], [["330.413"], ["114"], ["632.8"], ["1.3794", "0.0005"]], [["330.428"], ["114"], ["632.8"], ["1.3793", "0.0005"]], [["330.444"], ["114"], ["632.8"], ["1.3792", "0.0005"]], [["330.464"], ["114"], ["632.8"], ["1.3789", "0.0006"]], [["330.476"], ["114"], ["632.8"], ["1.3789", "0.0006"]], [["330.485"], ["114"], ["632.8"], ["1.3788", "0.0007"]], [["330.493"], ["114"], ["632.8"], ["1.3788", "0.0008"]], [["330.502"], ["114"], ["632.8"], ["1.3785", "0.0006"]], [["330.51"], ["114"], ["632.8"], ["1.3783", "0.0007"]], [["330.514"], ["114"], ["632.8"], ["1.3782", "0.0007"]], [["330.519"], ["114"], ["632.8"], ["1.3782", "0.0008"]], [["330.525"], ["114"], ["632.8"], ["1.3781", "0.0008"]], [["330.53"], ["114"], ["632.8"], ["1.378", "0.0008"]], [["330.537"], ["114"], ["632.8"], ["1.3777", "0.0011"]], [["330.541"], ["114"], ["632.8"], ["1.3776", "0.0011"]]], "solvent": null, "footer": "", "dhead": [["Temperature, K", null], ["Pressure, kPa", null], ["Wavelength, A", "Liquid mixture 2"], ["Refractive index", "Liquid mixture 2"]], "components": [{"name": "2-methylpropan-2-ol", "formula": "C<SUB>4</SUB>H<SUB>10</SUB>O", "idout": "AAONJg", "mw": "74.12", "sample": [["Source:", "commercial source"], ["Initial purification:", "stated by supplier"], ["Initial purity:", "99 mass %"], ["Final purification:", "Karl Fischer titration"], ["Final purity:", "0.0128 water mass %(molecular sieve treatment)"]]}, {"sample": [["Source:", "commercial source"], ["Initial purification:", "stated by supplier"], ["Initial purity:", "99 mass %"], ["Final purification:", "Karl Fischer titration"], ["Final purity:", "0.018 water mass %(dried in a desiccator;dried by vacuum heating)"]], "name": "1-butyl-3-methylimidazolium tetrafluoroborate", "formula": "C<SUB>8</SUB>H<SUB>15</SUB>BF<SUB>4</SUB>N<SUB>2</SUB>", "idout": "AArYBF", "mw": "226.03"}], "title": "Refraction, surface tension, and speed of sound: Refractive index"}