{"title": "Refraction, surface tension, and speed of sound: Refractive index", "components": [{"formula": "C<SUB>6</SUB>H<SUB>5</SUB>I", "name": "iodobenzene", "mw": "204.01", "idout": "AAnMwO", "sample": [["Source:", "commercial source"], ["Initial purification:", "stated by supplier"], ["Initial purity:", "98 mass %"], ["Final purification:", "Karl Fischer titration"], ["Final purity:", "0.0300 water mass %(dried by vacuum heating;molecular sieve treatment)"]]}, {"idout": "ABsrrg", "mw": "503.52", "name": "1-decyl-3-methylimidazolium bis(trifluoromethylsulfonyl)amide", "formula": "C<SUB>16</SUB>H<SUB>27</SUB>F<SUB>6</SUB>N<SUB>3</SUB>O<SUB>4</SUB>S<SUB>2</SUB>", "sample": [["Source:", "commercial source"], ["Initial purification:", "stated by supplier"], ["Initial purity:", "99 mass %"], ["Final purification:", "Karl Fischer titration"], ["Final purity:", "0.0350 water mass %(dried in a desiccator;dried by vacuum heating)"]]}], "dhead": [["Mole fraction of 1-decyl-3-methylimidazolium bis(trifluoromethylsulfonyl)amide", "Liquid"], ["Temperature, K", null], ["Pressure, kPa", null], ["Wavelength, A", "Liquid"], ["Refractive index", "Liquid"]], "footer": "", "data": [[["0.048"], ["291.176"], ["100"], ["632.8"], ["1.5898", "0.004"]], [["0.049"], ["291.161"], ["100"], ["632.8"], ["1.589", "0.0047"]], [["0.051"], ["291.132"], ["100"], ["632.8"], ["1.588", "0.0019"]], [["0.052"], ["291.112"], ["100"], ["632.8"], ["1.5875", "0.0025"]], [["0.053"], ["291.092"], ["100"], ["632.8"], ["1.5871", "0.002"]], [["0.055"], ["291.045"], ["100"], ["632.8"], ["1.5862", "0.0016"]], [["0.056"], ["290.981"], ["100"], ["632.8"], ["1.5856", "0.002"]], [["0.057"], ["290.936"], ["100"], ["632.8"], ["1.5851", "0.0016"]], [["0.059"], ["290.846"], ["100"], ["632.8"], ["1.5843", "0.0013"]], [["0.06"], ["290.754"], ["100"], ["632.8"], ["1.5836", "0.0034"]], [["0.06"], ["290.8"], ["100"], ["632.8"], ["1.5839", "0.0011"]], [["0.061"], ["290.662"], ["100"], ["632.8"], ["1.5831", "0.001"]], [["0.061"], ["290.706"], ["100"], ["632.8"], ["1.5832", "0.0018"]], [["0.062"], ["290.606"], ["100"], ["632.8"], ["1.5828", "0.0018"]], [["0.063"], ["290.487"], ["100"], ["632.8"], ["1.5822", "0.0009"]], [["0.063"], ["290.542"], ["100"], ["632.8"], ["1.5824", "0.0007"]], [["0.064"], ["290.409"], ["100"], ["632.8"], ["1.5817", "0.0007"]], [["0.065"], ["290.325"], ["100"], ["632.8"], ["1.5813", "0.0011"]], [["0.067"], ["290.207"], ["100"], ["632.8"], ["1.5808", "0.0007"]], [["0.069"], ["289.959"], ["100"], ["632.8"], ["1.5798", "0.0009"]], [["0.071"], ["289.594"], ["100"], ["632.8"], ["1.5788", "0.0011"]], [["0.074"], ["289.118"], ["100"], ["632.8"], ["1.5777", "0.0015"]], [["0.078"], ["288.485"], ["100"], ["632.8"], ["1.5764", "0.0014"]], [["0.082"], ["287.713"], ["100"], ["632.8"], ["1.5751", "0.0011"]], [["0.087"], ["286.525"], ["100"], ["632.8"], ["1.5734", "0.0021"]], [["0.09"], ["285.716"], ["100"], ["632.8"], ["1.5725", "0.0018"]], [["0.094"], ["284.79"], ["100"], ["632.8"], ["1.5714", "0.0019"]], [["0.098"], ["283.461"], ["100"], ["632.8"], ["1.5702", "0.0019"]], [["0.103"], ["282.074"], ["100"], ["632.8"], ["1.5691", "0.0025"]]], "solvent": null, "expmeth": "minimal deviation angle", "ref": {"title": "Critical universality and asymmetry of ionic solution {iodobenzene + 1-decyl-3-methyl-imidazolium bis(trifluorosulfonyl)imide}", "full": "Tao, X.; Yin, T.; Shen, W. (2017) Phys. Chem. Chem. Phys. 19(34), 22826-22835."}, "constr": [], "phases": ["Liquid"]}