{"components": [{"sample": [["Source:", "commercial source"], ["Purification:", "stated by supplier"], ["Purity:", "99 mass %"], ["Purity analysis:", "de-gassed by boiling or ultrasonically;molecular sieve treatment"]], "idout": "AAIsrh", "mw": "46.07", "formula": "C<SUB>2</SUB>H<SUB>6</SUB>O", "name": "ethanol"}, {"mw": "100.20", "idout": "AATOnt", "name": "heptane", "formula": "C<SUB>7</SUB>H<SUB>16</SUB>", "sample": [["Source:", "commercial source"], ["Purification:", "stated by supplier"], ["Purity:", "99 mass %"], ["Purity analysis:", "de-gassed by boiling or ultrasonically;molecular sieve treatment"]]}, {"idout": "ABiCtA", "mw": "447.41", "formula": "C<SUB>12</SUB>H<SUB>19</SUB>F<SUB>6</SUB>N<SUB>3</SUB>O<SUB>4</SUB>S<SUB>2</SUB>", "name": "1-hexyl-3-methylimidazolium bis[(trifluoromethyl)sulfonyl]imide", "sample": [["Source:", "commercial source"], ["Initial purification:", "stated by supplier"], ["Initial purity:", "99 mass %"], ["Final purification:", "ion-selective electrode;Karl Fischer titration"], ["Final purity:", "0.01 halide impurity mass %;0.007 water mass %(dried by vacuum heating)"]]}], "title": "Refraction, surface tension, and speed of sound: Refractive index (Na D-line)", "dhead": [["Weight fraction of heptane", "Liquid"], ["Weight fraction of ethanol", "Liquid"], ["Temperature, K", null], ["Pressure, kPa", null], ["Refractive index (Na D-line)", "Liquid"]], "data": [[["0"], ["0"], ["313.15"], ["101"], ["1.42542", "0.0007"]], [["0"], ["0.099"], ["313.15"], ["101"], ["1.41392", "0.0007"]], [["0"], ["0.231"], ["313.15"], ["101"], ["1.40128", "0.0007"]], [["0"], ["0.328"], ["313.15"], ["101"], ["1.39325", "0.0007"]], [["0"], ["0.529"], ["313.15"], ["101"], ["1.37912", "0.0007"]], [["0"], ["0.646"], ["313.15"], ["101"], ["1.37165", "0.0007"]], [["0"], ["0.74"], ["313.15"], ["101"], ["1.36626", "0.0007"]], [["0"], ["0.901"], ["313.15"], ["101"], ["1.35782", "0.0007"]], [["0"], ["1"], ["313.15"], ["101"], ["1.35353", "0.0007"]], [["0.026"], ["0.385"], ["313.15"], ["101"], ["1.38773", "0.0007"]], [["0.031"], ["0.192"], ["313.15"], ["101"], ["1.4032", "0.0007"]], [["0.032"], ["0.091"], ["313.15"], ["101"], ["1.41343", "0.0007"]], [["0.045"], ["0.478"], ["313.15"], ["101"], ["1.38044", "0.00071"]], [["0.046"], ["0.189"], ["313.15"], ["101"], ["1.40302", "0.0007"]], [["0.047"], ["0.574"], ["313.15"], ["101"], ["1.37416", "0.0007"]], [["0.055"], ["0.897"], ["313.15"], ["101"], ["1.35633", "0.0007"]], [["0.059"], ["0.372"], ["313.15"], ["101"], ["1.38704", "0.0007"]], [["0.06"], ["0.663"], ["313.15"], ["101"], ["1.36875", "0.0007"]], [["0.064"], ["0.185"], ["313.15"], ["101"], ["1.40256", "0.0007"]], [["0.091"], ["0.455"], ["313.15"], ["101"], ["1.37998", "0.0007"]], [["0.094"], ["0.546"], ["313.15"], ["101"], ["1.37401", "0.0007"]], [["0.095"], ["0.358"], ["313.15"], ["101"], ["1.38625", "0.0007"]], [["0.099"], ["0.635"], ["313.15"], ["101"], ["1.36878", "0.0007"]], [["0.103"], ["0.718"], ["313.15"], ["101"], ["1.36403", "0.0007"]], [["0.111"], ["0.844"], ["313.15"], ["101"], ["1.3573", "0.0007"]], [["0.137"], ["0.432"], ["313.15"], ["101"], ["1.37934", "0.0007"]], [["0.142"], ["0.517"], ["313.15"], ["101"], ["1.37397", "0.0007"]], [["0.148"], ["0.601"], ["313.15"], ["101"], ["1.36896", "0.0007"]], [["0.155"], ["0.677"], ["313.15"], ["101"], ["1.36455", "0.0007"]], [["0.16"], ["0.756"], ["313.15"], ["101"], ["1.36035", "0.0007"]], [["0.164"], ["0.795"], ["313.15"], ["101"], ["1.35826", "0.0007"]], [["0.189"], ["0.406"], ["313.15"], ["101"], ["1.37896", "0.0007"]], [["0.19"], ["0.488"], ["313.15"], ["101"], ["1.37392", "0.0007"]], [["0.2"], ["0.565"], ["313.15"], ["101"], ["1.36923", "0.0007"]], [["0.206"], ["0.636"], ["313.15"], ["101"], ["1.3653", "0.0007"]], [["0.214"], ["0.707"], ["313.15"], ["101"], ["1.36126", "0.0007"]], [["0.218"], ["0.743"], ["313.15"], ["101"], ["1.35933", "0.0007"]], [["0.229"], ["0.544"], ["313.15"], ["101"], ["1.36945", "0.0007"]], [["0.253"], ["0.527"], ["313.15"], ["101"], ["1.36957", "0.0007"]], [["0.258"], ["0.594"], ["313.15"], ["101"], ["1.3658", "0.0007"]], [["0.269"], ["0.658"], ["313.15"], ["101"], ["1.36216", "0.0007"]], [["0.274"], ["0.689"], ["313.15"], ["101"], ["1.36044", "0.0007"]], [["0.288"], ["0.429"], ["313.15"], ["101"], ["1.3739", "0.0007"]], [["0.307"], ["0.555"], ["313.15"], ["101"], ["1.36645", "0.0007"]], [["0.318"], ["0.613"], ["313.15"], ["101"], ["1.36304", "0.0007"]], [["0.33"], ["0.636"], ["313.15"], ["101"], ["1.36159", "0.0007"]], [["0.357"], ["0.515"], ["313.15"], ["101"], ["1.36728", "0.0007"]], [["0.375"], ["0.562"], ["313.15"], ["101"], ["1.36406", "0.0007"]], [["0.38"], ["0.589"], ["313.15"], ["101"], ["1.36256", "0.0007"]], [["0.387"], ["0.552"], ["313.15"], ["101"], ["1.36424", "0.0007"]], [["0.39"], ["0.549"], ["313.15"], ["101"], ["1.36434", "0.0007"]], [["0.408"], ["0.474"], ["313.15"], ["101"], ["1.36803", "0.0007"]], [["0.422"], ["0.52"], ["313.15"], ["101"], ["1.36496", "0.0007"]], [["0.43"], ["0.541"], ["313.15"], ["101"], ["1.36366", "0.0007"]], [["0.481"], ["0.493"], ["313.15"], ["101"], ["1.36467", "0.0007"]], [["0.506"], ["0.395"], ["313.15"], ["101"], ["1.3693", "0.0007"]], [["0.528"], ["0.449"], ["313.15"], ["101"], ["1.36568", "0.0007"]], [["0.579"], ["0.4"], ["313.15"], ["101"], ["1.36694", "0.0007"]], [["0.627"], ["0.354"], ["313.15"], ["101"], ["1.36785", "0.0007"]], [["0.719"], ["0.267"], ["313.15"], ["101"], ["1.36994", "0.0007"]], [["0.763"], ["0.225"], ["313.15"], ["101"], ["1.37098", "0.0007"]]], "solvent": null, "footer": "", "expmeth": "Standard Abbe refractometry", "constr": [], "ref": {"title": "1-Alkyl-3-methylimidazolium bis(trifluoromethylsulfonyl)imide ionic liquids as solvents in the separation of azeotropic mixtures", "full": "Seoane, R. G.; Gonzalez, E. J.; Gonzalez, B. (2012) J. Chem. Thermodyn. 53, 152-157."}, "phases": ["Liquid"]}