{"constr": [], "ref": {"title": "Density and refractive index data of binary and ternary mixtures of imidazolium-based ionic liquids, n-hexane and organic compounds involved in the kinetic resolution of rac-2-pentanol", "full": "Montalban, M. G.; Collado-Gonzalez, M.; Lozano-Perez, A. A.; Banos, F. G. D.; Villora, G. (2018) Data in Brief 19, 134-144."}, "phases": ["Liquid"], "title": "Refraction, surface tension, and speed of sound: Refractive index (Na D-line)", "components": [{"sample": [["Source:", "commercial source"], ["Initial purification:", "stated by supplier"], ["Initial purity:", "95 mass %"], ["Final purification:", "Karl Fischer titration"], ["Final purity:", "0.1 water mass %(dried in a desiccator;dried by vacuum heating)"]], "idout": "AAgmaR", "mw": "170.21", "formula": "C<SUB>8</SUB>H<SUB>14</SUB>N<SUB>2</SUB>O<SUB>2</SUB>", "name": "1-ethyl-3-methylimidazolium acetate"}, {"sample": [["Source:", "commercial source"], ["Initial purification:", "stated by supplier"], ["Initial purity:", "98 mass %"], ["Final purification:", "Karl Fischer titration"], ["Final purity:", "0.1 water mass %(dried in a desiccator;dried by vacuum heating)"]], "mw": "88.15", "idout": "AAQxVB", "formula": "C<SUB>5</SUB>H<SUB>12</SUB>O", "name": "pentan-2-ol"}, {"sample": [["Source:", "commercial source"], ["Initial purification:", "stated by supplier"], ["Initial purity:", "99 mass %"], ["Final purification:", "Karl Fischer titration"], ["Final purity:", "0.1 water mass %(dried in a desiccator;dried by vacuum heating)"]], "formula": "C<SUB>6</SUB>H<SUB>14</SUB>", "name": "hexane", "idout": "AAQdzy", "mw": "86.18"}], "dhead": [["Mole fraction of pentan-2-ol", "Liquid"], ["Mole fraction of hexane", "Liquid"], ["Temperature, K", null], ["Pressure, kPa", null], ["Refractive index (Na D-line)", "Liquid"]], "footer": "", "data": [[["0.1499"], ["0.81"], ["303.15"], ["100"], ["1.38334", "0.00057"]], [["0.16"], ["0.1199"], ["303.15"], ["100"], ["1.48186", "0.00095"]], [["0.1854"], ["0.791"], ["303.15"], ["100"], ["1.39001", "0.00056"]], [["0.2387"], ["0.7475"], ["303.15"], ["100"], ["1.40102", "0.00056"]], [["0.2597"], ["0.3001"], ["303.15"], ["100"], ["1.46115", "0.00078"]], [["0.2763"], ["0.6986"], ["303.15"], ["100"], ["1.41001", "0.00057"]], [["0.2801"], ["0.1799"], ["303.15"], ["100"], ["1.4699", "0.00085"]], [["0.2999"], ["0.5801"], ["303.15"], ["100"], ["1.42885", "0.00061"]], [["0.306"], ["0.3521"], ["303.15"], ["100"], ["1.45501", "0.00073"]], [["0.3099"], ["0.6229"], ["303.15"], ["100"], ["1.422", "0.00059"]], [["0.3201"], ["0.45"], ["303.15"], ["100"], ["1.44268", "0.00067"]], [["0.3249"], ["0.535"], ["303.15"], ["100"], ["1.43403", "0.00062"]]], "solvent": null, "expmeth": "Standard Abbe refractometry"}