{"expmeth": "Standard Abbe refractometry", "data": [[["283.15"], ["100"], ["1.45294", "0.00037"]], [["285.65"], ["100"], ["1.45227", "0.00037"]], [["288.15"], ["100"], ["1.4516", "0.00037"]], [["290.65"], ["100"], ["1.45092", "0.00037"]], [["293.15"], ["100"], ["1.45023", "0.00037"]], [["295.65"], ["100"], ["1.44956", "0.00037"]], [["298.15"], ["100"], ["1.44889", "0.00037"]], [["300.65"], ["100"], ["1.44821", "0.00037"]], [["303.15"], ["100"], ["1.44753", "0.00037"]], [["305.65"], ["100"], ["1.44685", "0.00037"]], [["308.15"], ["100"], ["1.44617", "0.00037"]], [["310.65"], ["100"], ["1.44549", "0.00037"]], [["313.15"], ["100"], ["1.44483", "0.00037"]], [["315.65"], ["100"], ["1.44415", "0.00037"]], [["318.15"], ["100"], ["1.44347", "0.00037"]], [["320.65"], ["100"], ["1.4428", "0.00037"]], [["323.15"], ["100"], ["1.44221", "0.00037"]], [["325.65"], ["100"], ["1.44153", "0.00037"]], [["328.15"], ["100"], ["1.44085", "0.00037"]], [["330.65"], ["100"], ["1.44017", "0.00037"]], [["333.15"], ["100"], ["1.4395", "0.00037"]], [["335.65"], ["100"], ["1.43882", "0.00037"]], [["338.15"], ["100"], ["1.43814", "0.00037"]]], "solvent": null, "footer": "", "dhead": [["Temperature, K", null], ["Pressure, kPa", null], ["Refractive index (Na D-line)", "Liquid"]], "components": [{"mw": "251.08", "idout": "AAwOrj", "formula": "C<SUB>11</SUB>H<SUB>18</SUB>BF<SUB>4</SUB>N", "name": "1-hexylpyridinium tetrafluoroborate", "sample": [["Source:", "commercial source"], ["Initial purification:", "stated by supplier"], ["Initial purity:", "99 mass %"], ["Final purification:", "Karl Fischer titration"], ["Final purity:", "0.0430 water mass %(de-gassed by evacuation)"]]}], "title": "Refraction, surface tension, and speed of sound: Refractive index (Na D-line)", "phases": ["Liquid"], "ref": {"full": "Reinado, C.; Pelegrina, A.; Sanchez-Rubio, M.; Artigas, H.; Lafuente, C. (2022) J. Chem. Eng. Data 67(3), 636-643.", "title": "Thermophysical Study of Pyridinium-Based Ionic Liquids Sharing Ions"}, "constr": []}