{"ref": {"full": "Bahadur, Indra; Kgomotso, Masilo; Ebenso, Eno E.; Redhi, Gan (2016) RSC Adv. 6(106), 104708-104723.", "title": "Influence of temperature on molecular interactions of imidazolium-based ionic liquids with acetophenone: thermodynamic properties and quantum chemical studies"}, "constr": [], "phases": ["Liquid"], "dhead": [["Temperature, K", null], ["Mole fraction of 1-ethyl-3-methylimidazolium tetrafluoroborate", "Liquid"], ["Pressure, kPa", null], ["Refractive index (Na D-line)", "Liquid"]], "components": [{"mw": "120.15", "idout": "AAXFxu", "name": "acetophenone", "formula": "C<SUB>8</SUB>H<SUB>8</SUB>O", "sample": [["Source:", "commercial source"], ["Initial purification:", "stated by supplier"], ["Initial purity:", "99 % (basis not specified)"], ["Final purification:", "Karl Fischer titration"], ["Final purity:", "0.06 water mass %"]]}, {"idout": "AAmDom", "mw": "197.97", "formula": "C<SUB>6</SUB>H<SUB>11</SUB>BF<SUB>4</SUB>N<SUB>2</SUB>", "name": "1-ethyl-3-methylimidazolium tetrafluoroborate", "sample": [["Source:", "commercial source"], ["Initial purification:", "stated by supplier"], ["Initial purity:", "98 % (basis not specified)"], ["Final purification:", "Karl Fischer titration"], ["Final purity:", "0.06 water mass %"]]}], "title": "Refraction, surface tension, and speed of sound: Refractive index (Na D-line)", "expmeth": "Standard Abbe refractometry", "data": [[["293.15"], ["0"], ["100"], ["1.533", "0.01"]], [["293.15"], ["0.0502"], ["100"], ["1.527", "0.01"]], [["293.15"], ["0.1082"], ["100"], ["1.519", "0.01"]], [["293.15"], ["0.1993"], ["100"], ["1.507", "0.01"]], [["293.15"], ["0.2995"], ["100"], ["1.492", "0.01"]], [["293.15"], ["0.4021"], ["100"], ["1.478", "0.01"]], [["293.15"], ["0.5011"], ["100"], ["1.466", "0.01"]], [["293.15"], ["0.5997"], ["100"], ["1.456", "0.01"]], [["293.15"], ["0.7001"], ["100"], ["1.449", "0.01"]], [["293.15"], ["0.805"], ["100"], ["1.44", "0.01"]], [["293.15"], ["0.906"], ["100"], ["1.429", "0.01"]], [["293.15"], ["0.9584"], ["100"], ["1.421", "0.01"]], [["293.15"], ["1"], ["100"], ["1.414", "0.01"]], [["303.15"], ["0"], ["100"], ["1.528", "0.01"]], [["303.15"], ["0.0502"], ["100"], ["1.522", "0.01"]], [["303.15"], ["0.1082"], ["100"], ["1.515", "0.01"]], [["303.15"], ["0.1993"], ["100"], ["1.503", "0.01"]], [["303.15"], ["0.2995"], ["100"], ["1.488", "0.01"]], [["303.15"], ["0.4021"], ["100"], ["1.474", "0.01"]], [["303.15"], ["0.5011"], ["100"], ["1.463", "0.01"]], [["303.15"], ["0.5997"], ["100"], ["1.454", "0.01"]], [["303.15"], ["0.7001"], ["100"], ["1.446", "0.01"]], [["303.15"], ["0.805"], ["100"], ["1.437", "0.01"]], [["303.15"], ["0.906"], ["100"], ["1.426", "0.01"]], [["303.15"], ["0.9584"], ["100"], ["1.419", "0.01"]], [["303.15"], ["1"], ["100"], ["1.412", "0.01"]], [["313.15"], ["0"], ["100"], ["1.523", "0.01"]], [["313.15"], ["0.0502"], ["100"], ["1.518", "0.01"]], [["313.15"], ["0.1082"], ["100"], ["1.51", "0.01"]], [["313.15"], ["0.1993"], ["100"], ["1.498", "0.01"]], [["313.15"], ["0.2995"], ["100"], ["1.484", "0.01"]], [["313.15"], ["0.4021"], ["100"], ["1.471", "0.01"]], [["313.15"], ["0.5011"], ["100"], ["1.46", "0.01"]], [["313.15"], ["0.5997"], ["100"], ["1.451", "0.01"]], [["313.15"], ["0.7001"], ["100"], ["1.443", "0.01"]], [["313.15"], ["0.805"], ["100"], ["1.435", "0.01"]], [["313.15"], ["0.906"], ["100"], ["1.424", "0.01"]], [["313.15"], ["0.9584"], ["100"], ["1.416", "0.01"]], [["313.15"], ["1"], ["100"], ["1.409", "0.01"]], [["323.15"], ["0"], ["100"], ["1.519", "0.01"]], [["323.15"], ["0.0502"], ["100"], ["1.513", "0.01"]], [["323.15"], ["0.1082"], ["100"], ["1.506", "0.01"]], [["323.15"], ["0.1993"], ["100"], ["1.495", "0.01"]], [["323.15"], ["0.2995"], ["100"], ["1.481", "0.01"]], [["323.15"], ["0.4021"], ["100"], ["1.468", "0.01"]], [["323.15"], ["0.5011"], ["100"], ["1.457", "0.01"]], [["323.15"], ["0.5997"], ["100"], ["1.448", "0.01"]], [["323.15"], ["0.7001"], ["100"], ["1.441", "0.01"]], [["323.15"], ["0.805"], ["100"], ["1.432", "0.01"]], [["323.15"], ["0.906"], ["100"], ["1.422", "0.01"]], [["323.15"], ["0.9584"], ["100"], ["1.414", "0.01"]], [["323.15"], ["1"], ["100"], ["1.407", "0.01"]], [["333.15"], ["0"], ["100"], ["1.514", "0.01"]], [["333.15"], ["0.0502"], ["100"], ["1.508", "0.01"]], [["333.15"], ["0.1082"], ["100"], ["1.502", "0.01"]], [["333.15"], ["0.1993"], ["100"], ["1.49", "0.01"]], [["333.15"], ["0.2995"], ["100"], ["1.477", "0.01"]], [["333.15"], ["0.4021"], ["100"], ["1.464", "0.01"]], [["333.15"], ["0.5011"], ["100"], ["1.454", "0.01"]], [["333.15"], ["0.5997"], ["100"], ["1.446", "0.01"]], [["333.15"], ["0.7001"], ["100"], ["1.438", "0.01"]], [["333.15"], ["0.805"], ["100"], ["1.43", "0.01"]], [["333.15"], ["0.906"], ["100"], ["1.419", "0.01"]], [["333.15"], ["0.9584"], ["100"], ["1.412", "0.01"]], [["333.15"], ["1"], ["100"], ["1.404", "0.01"]]], "solvent": null, "footer": ""}