{"constr": [], "ref": {"title": "Water concentration dependence of the refractive index of various ionic liquid-water mixtures", "full": "Kaneko, K.; Yoshimura, Y.; Shimizu, A. (2018) J. Mol. Liq. 250, 283-286."}, "phases": ["Liquid"], "components": [{"formula": "C<SUB>8</SUB>H<SUB>15</SUB>BF<SUB>4</SUB>N<SUB>2</SUB>", "name": "1-butyl-3-methylimidazolium tetrafluoroborate", "idout": "AArYBF", "mw": "226.03", "sample": [["Source:", "commercial source"], ["Initial purification:", "stated by supplier"], ["Initial purity:", "95 mass %"], ["Final purification:", "NMR (proton)"], ["Final purity:", "0.0474 water mass %(de-gassed by evacuation;dried by vacuum heating)"]]}, {"sample": [["Source:", "commercial source"], ["Purification:", "estimated by the compiler"], ["Purity:", "99.9 mass %"]], "name": "water", "formula": "H<SUB>2</SUB>O", "idout": "AADYJk", "mw": "18.02"}], "title": "Refraction, surface tension, and speed of sound: Refractive index (Na D-line)", "dhead": [["Mole fraction of 1-butyl-3-methylimidazolium tetrafluoroborate", "Liquid"], ["Pressure, kPa", null], ["Temperature, K", null], ["Refractive index (Na D-line)", "Liquid"]], "solvent": null, "data": [[["0"], ["100"], ["293"], ["1.3333", "0.0005"]], [["0.012"], ["100"], ["293"], ["1.3423", "0.0005"]], [["0.025"], ["100"], ["293"], ["1.3507", "0.0005"]], [["0.037"], ["100"], ["293"], ["1.3576", "0.0005"]], [["0.05"], ["100"], ["293"], ["1.3625", "0.0005"]], [["0.065"], ["100"], ["293"], ["1.3685", "0.0005"]], [["0.079"], ["100"], ["293"], ["1.373", "0.0005"]], [["0.1"], ["100"], ["293"], ["1.3785", "0.0005"]], [["0.119"], ["100"], ["293"], ["1.3826", "0.0005"]], [["0.146"], ["100"], ["293"], ["1.3876", "0.0005"]], [["0.161"], ["100"], ["293"], ["1.3899", "0.0005"]], [["0.191"], ["100"], ["293"], ["1.3939", "0.0005"]], [["0.221"], ["100"], ["293"], ["1.3971", "0.0006"]], [["0.248"], ["100"], ["293"], ["1.3996", "0.0006"]], [["0.293"], ["100"], ["293"], ["1.4029", "0.0006"]], [["0.328"], ["100"], ["293"], ["1.4054", "0.0006"]], [["0.35"], ["100"], ["293"], ["1.4067", "0.0006"]], [["0.395"], ["100"], ["293"], ["1.4087", "0.0007"]], [["0.439"], ["100"], ["293"], ["1.4108", "0.0007"]], [["0.493"], ["100"], ["293"], ["1.4133", "0.0007"]], [["0.555"], ["100"], ["293"], ["1.4147", "0.0008"]], [["0.621"], ["100"], ["293"], ["1.4165", "0.0008"]], [["0.668"], ["100"], ["293"], ["1.4174", "0.0008"]], [["0.698"], ["100"], ["293"], ["1.4183", "0.0009"]], [["0.759"], ["100"], ["293"], ["1.4193", "0.0009"]], [["0.812"], ["100"], ["293"], ["1.4201", "0.001"]], [["0.91"], ["100"], ["293"], ["1.4214", "0.001"]], [["1"], ["100"], ["293"], ["1.4226", "0.0011"]]], "footer": "", "expmeth": "Standard Abbe refractometry"}