{"constr": [], "ref": {"full": "Ghalami-Choobar, Bahram; Fallahkar, Tayyebe Nosrati (2019) Fluid Phase Equilib. 496, 42-60.", "title": "Thermophysical properties of 1-ethyl-3-methylimidazolium bromide ionic liquid in water + ethylene carbonate mixtures at T = (298.2, 308.2 and 318.2) K"}, "phases": ["Liquid"], "components": [{"sample": [["Source:", "synthesized by the authors"], ["Purification:", "stated by supplier"], ["Purity:", "99 mass %"], ["Purity analysis:", "none used"]], "mw": "88.06", "idout": "AAQwFH", "formula": "C<SUB>3</SUB>H<SUB>4</SUB>O<SUB>3</SUB>", "name": "ethylene carbonate"}, {"name": "water", "formula": "H<SUB>2</SUB>O", "idout": "AADYJk", "mw": "18.02", "sample": [["Source:", "isolated from a natural product"], ["Purification:", "estimated by the compiler"], ["Purity:", "99.9 mass %"], ["Purity analysis:", "fractional distillation"]]}, {"sample": [["Source:", "synthesized by the authors"], ["Purification:", "Karl Fischer titration;estimated by the compiler"], ["Purity:", "0.2 water mass %;98 mass %(chemical reagent treatment;dried by vacuum heating)"]], "mw": "191.07", "idout": "AAkmTS", "name": "1-ethyl-3-methylimidazolium bromide", "formula": "C<SUB>6</SUB>H<SUB>11</SUB>BrN<SUB>2</SUB>"}], "title": "Refraction, surface tension, and speed of sound: Refractive index (Na D-line)", "dhead": [["Temperature, K", null], ["Mole fraction of water", "Liquid"], ["Mole fraction of 1-ethyl-3-methylimidazolium bromide", "Liquid"], ["Pressure, kPa", null], ["Refractive index (Na D-line)", "Liquid"]], "solvent": null, "data": [[["298.2"], ["0.1888"], ["0.2534"], ["100"], ["1.479", "0.0005"]], [["298.2"], ["0.2156"], ["0.1545"], ["100"], ["1.459", "0.0005"]], [["298.2"], ["0.225"], ["0.3092"], ["100"], ["1.491", "0.0005"]], [["298.2"], ["0.261"], ["0.204"], ["100"], ["1.47", "0.0005"]], [["298.2"], ["0.2986"], ["0.1056"], ["100"], ["1.4455", "0.0005"]], [["298.2"], ["0.3482"], ["0.2978"], ["100"], ["1.49", "0.0005"]], [["298.2"], ["0.3727"], ["0.2543"], ["100"], ["1.4815", "0.0005"]], [["298.2"], ["0.3998"], ["0.1999"], ["100"], ["1.4695", "0.0005"]], [["298.2"], ["0.4216"], ["0.1443"], ["100"], ["1.455", "0.0005"]], [["298.2"], ["0.4483"], ["0.1018"], ["100"], ["1.444", "0.0005"]], [["298.2"], ["0.4673"], ["0.299"], ["100"], ["1.493", "0.0005"]], [["298.2"], ["0.523"], ["0.198"], ["100"], ["1.468", "0.0005"]], [["298.2"], ["0.5616"], ["0.2473"], ["100"], ["1.4825", "0.0005"]], [["298.2"], ["0.5938"], ["0.1042"], ["100"], ["1.4415", "0.0005"]], [["298.2"], ["0.64"], ["0.1494"], ["100"], ["1.4535", "0.0005"]], [["308.2"], ["0.1895"], ["0.2532"], ["100"], ["1.4765", "0.0005"]], [["308.2"], ["0.2156"], ["0.1545"], ["100"], ["1.455", "0.0005"]], [["308.2"], ["0.225"], ["0.3092"], ["100"], ["1.4875", "0.0005"]], [["308.2"], ["0.261"], ["0.204"], ["100"], ["1.466", "0.0005"]], [["308.2"], ["0.2986"], ["0.1056"], ["100"], ["1.4415", "0.0005"]], [["308.2"], ["0.3466"], ["0.2985"], ["100"], ["1.4875", "0.0005"]], [["308.2"], ["0.3706"], ["0.2551"], ["100"], ["1.478", "0.0005"]], [["308.2"], ["0.3985"], ["0.2004"], ["100"], ["1.468", "0.0005"]], [["308.2"], ["0.4208"], ["0.1445"], ["100"], ["1.4515", "0.0005"]], [["308.2"], ["0.4476"], ["0.1019"], ["100"], ["1.441", "0.0005"]], [["308.2"], ["0.4669"], ["0.2992"], ["100"], ["1.4915", "0.0005"]], [["308.2"], ["0.5216"], ["0.1986"], ["100"], ["1.4655", "0.0005"]], [["308.2"], ["0.5605"], ["0.248"], ["100"], ["1.48", "0.0005"]], [["308.2"], ["0.5932"], ["0.1044"], ["100"], ["1.44", "0.0005"]], [["308.2"], ["0.6388"], ["0.1499"], ["100"], ["1.4505", "0.0005"]], [["318.2"], ["0.1888"], ["0.2534"], ["100"], ["1.4735", "0.0005"]], [["318.2"], ["0.2141"], ["0.1548"], ["100"], ["1.4525", "0.0005"]], [["318.2"], ["0.225"], ["0.3092"], ["100"], ["1.485", "0.0005"]], [["318.2"], ["0.2594"], ["0.2045"], ["100"], ["1.4625", "0.0005"]], [["318.2"], ["0.2973"], ["0.1058"], ["100"], ["1.4395", "0.0005"]], [["318.2"], ["0.3457"], ["0.2989"], ["100"], ["1.4855", "0.0005"]], [["318.2"], ["0.3697"], ["0.2555"], ["100"], ["1.4725", "0.0005"]], [["318.2"], ["0.3975"], ["0.2007"], ["100"], ["1.463", "0.0005"]], [["318.2"], ["0.4199"], ["0.1448"], ["100"], ["1.45", "0.0005"]], [["318.2"], ["0.4466"], ["0.1021"], ["100"], ["1.4375", "0.0005"]], [["318.2"], ["0.4673"], ["0.299"], ["100"], ["1.488", "0.0005"]], [["318.2"], ["0.5206"], ["0.199"], ["100"], ["1.464", "0.0005"]], [["318.2"], ["0.5596"], ["0.2485"], ["100"], ["1.479", "0.0005"]], [["318.2"], ["0.5923"], ["0.1046"], ["100"], ["1.4355", "0.0005"]], [["318.2"], ["0.638"], ["0.1503"], ["100"], ["1.4495", "0.0005"]]], "footer": "", "expmeth": "Standard Abbe refractometry"}