{"ref": {"full": "Malek, N. I.; Singh, A.; Surati, R.; Ijardar, S. P. (2014) J. Chem. Thermodyn. 74, 103-118.", "title": "Study on thermo physical and excess molar properties of binary systems of ionic liquids. I: [Cnmim][PF6] (n = 6, 8) and alkyl acetates"}, "constr": [], "phases": ["Liquid"], "components": [{"sample": [["Source:", "commercial source"], ["Initial purification:", "stated by supplier"], ["Initial purity:", "99.5 mass %"], ["Final purification:", "gas chromatography"], ["Final purity:", "99.6 mass %(dried with chemical reagent;fractional distillation)"]], "formula": "C<SUB>4</SUB>H<SUB>8</SUB>O<SUB>2</SUB>", "name": "ethyl acetate", "mw": "88.11", "idout": "AAQxSq"}, {"sample": [["Source:", "synthesized by the authors"], ["Purification:", "Karl Fischer titration;estimated by the compiler"], ["Purity:", "0.0081 water mass %;97 mass %(dried by vacuum heating;solvent extraction)"]], "formula": "C<SUB>12</SUB>H<SUB>23</SUB>F<SUB>6</SUB>N<SUB>2</SUB>P", "name": "1-octyl-3-methylimidazolium hexafluorophosphate", "idout": "ABNWoR", "mw": "340.29"}], "title": "Refraction, surface tension, and speed of sound: Refractive index (Na D-line)", "dhead": [["Temperature, K", null], ["Mole fraction of 1-octyl-3-methylimidazolium hexafluorophosphate", "Liquid"], ["Pressure, kPa", null], ["Refractive index (Na D-line)", "Liquid"]], "data": [[["293.15"], ["0"], ["101"], ["1.37237", "0.0016"]], [["293.15"], ["0.1056"], ["101"], ["1.38873", "0.0016"]], [["293.15"], ["0.2064"], ["101"], ["1.40004", "0.0016"]], [["293.15"], ["0.308"], ["101"], ["1.40816", "0.0016"]], [["293.15"], ["0.4094"], ["101"], ["1.41301", "0.0016"]], [["293.15"], ["0.4991"], ["101"], ["1.41629", "0.0016"]], [["293.15"], ["0.5916"], ["101"], ["1.41842", "0.0016"]], [["293.15"], ["0.694"], ["101"], ["1.4208", "0.0017"]], [["293.15"], ["0.8121"], ["101"], ["1.42285", "0.0017"]], [["293.15"], ["0.8895"], ["101"], ["1.42447", "0.0017"]], [["293.15"], ["1"], ["101"], ["1.42649", "0.0017"]], [["298.15"], ["0"], ["101"], ["1.36982", "0.0016"]], [["298.15"], ["0.1056"], ["101"], ["1.38754", "0.0016"]], [["298.15"], ["0.2064"], ["101"], ["1.39899", "0.0016"]], [["298.15"], ["0.308"], ["101"], ["1.40705", "0.0016"]], [["298.15"], ["0.4094"], ["101"], ["1.41196", "0.0016"]], [["298.15"], ["0.4991"], ["101"], ["1.41523", "0.0016"]], [["298.15"], ["0.5916"], ["101"], ["1.41771", "0.0016"]], [["298.15"], ["0.694"], ["101"], ["1.41971", "0.0017"]], [["298.15"], ["0.8121"], ["101"], ["1.42189", "0.0017"]], [["298.15"], ["0.8895"], ["101"], ["1.42354", "0.0017"]], [["298.15"], ["1"], ["101"], ["1.42512", "0.0017"]], [["303.15"], ["0"], ["101"], ["1.36727", "0.0016"]], [["303.15"], ["0.1056"], ["101"], ["1.38545", "0.0016"]], [["303.15"], ["0.2064"], ["101"], ["1.39759", "0.0016"]], [["303.15"], ["0.308"], ["101"], ["1.40552", "0.0016"]], [["303.15"], ["0.4094"], ["101"], ["1.41088", "0.0016"]], [["303.15"], ["0.4991"], ["101"], ["1.41385", "0.0016"]], [["303.15"], ["0.5916"], ["101"], ["1.41655", "0.0016"]], [["303.15"], ["0.694"], ["101"], ["1.41878", "0.0017"]], [["303.15"], ["0.8121"], ["101"], ["1.42063", "0.0017"]], [["303.15"], ["0.8895"], ["101"], ["1.42188", "0.0017"]], [["303.15"], ["1"], ["101"], ["1.42376", "0.0017"]], [["308.15"], ["0"], ["101"], ["1.36473", "0.0016"]], [["308.15"], ["0.1056"], ["101"], ["1.38383", "0.0016"]], [["308.15"], ["0.2064"], ["101"], ["1.39634", "0.0016"]], [["308.15"], ["0.308"], ["101"], ["1.40439", "0.0016"]], [["308.15"], ["0.4094"], ["101"], ["1.40952", "0.0016"]], [["308.15"], ["0.4991"], ["101"], ["1.41311", "0.0016"]], [["308.15"], ["0.5916"], ["101"], ["1.41557", "0.0016"]], [["308.15"], ["0.694"], ["101"], ["1.41792", "0.0017"]], [["308.15"], ["0.8121"], ["101"], ["1.42016", "0.0017"]], [["308.15"], ["0.8895"], ["101"], ["1.42072", "0.0017"]], [["308.15"], ["1"], ["101"], ["1.4224", "0.0017"]], [["313.15"], ["0"], ["101"], ["1.36219", "0.0016"]], [["313.15"], ["0.1056"], ["101"], ["1.38267", "0.0016"]], [["313.15"], ["0.2064"], ["101"], ["1.39498", "0.0016"]], [["313.15"], ["0.308"], ["101"], ["1.40318", "0.0016"]], [["313.15"], ["0.4094"], ["101"], ["1.40842", "0.0016"]], [["313.15"], ["0.4991"], ["101"], ["1.41186", "0.0016"]], [["313.15"], ["0.5916"], ["101"], ["1.41447", "0.0016"]], [["313.15"], ["0.694"], ["101"], ["1.41699", "0.0017"]], [["313.15"], ["0.8121"], ["101"], ["1.41906", "0.0017"]], [["313.15"], ["0.8895"], ["101"], ["1.41956", "0.0017"]], [["313.15"], ["1"], ["101"], ["1.42103", "0.0017"]], [["318.15"], ["0"], ["101"], ["1.35968", "0.0016"]], [["318.15"], ["0.1056"], ["101"], ["1.38145", "0.0016"]], [["318.15"], ["0.2064"], ["101"], ["1.39381", "0.0016"]], [["318.15"], ["0.308"], ["101"], ["1.40208", "0.0016"]], [["318.15"], ["0.4094"], ["101"], ["1.40767", "0.0016"]], [["318.15"], ["0.4991"], ["101"], ["1.41108", "0.0016"]], [["318.15"], ["0.5916"], ["101"], ["1.41348", "0.0016"]], [["318.15"], ["0.694"], ["101"], ["1.41612", "0.0017"]], [["318.15"], ["0.8121"], ["101"], ["1.41805", "0.0017"]], [["318.15"], ["0.8895"], ["101"], ["1.41852", "0.0017"]], [["318.15"], ["1"], ["101"], ["1.41967", "0.0017"]], [["323.15"], ["0"], ["101"], ["1.35732", "0.0016"]], [["323.15"], ["0.1056"], ["101"], ["1.38027", "0.0016"]], [["323.15"], ["0.2064"], ["101"], ["1.39276", "0.0016"]], [["323.15"], ["0.308"], ["101"], ["1.40106", "0.0016"]], [["323.15"], ["0.4094"], ["101"], ["1.40658", "0.0016"]], [["323.15"], ["0.4991"], ["101"], ["1.41002", "0.0016"]], [["323.15"], ["0.5916"], ["101"], ["1.41266", "0.0016"]], [["323.15"], ["0.694"], ["101"], ["1.41504", "0.0017"]], [["323.15"], ["0.8121"], ["101"], ["1.41746", "0.0017"]], [["323.15"], ["0.8895"], ["101"], ["1.41744", "0.0017"]], [["323.15"], ["1"], ["101"], ["1.41831", "0.0017"]]], "solvent": null, "footer": "", "expmeth": "Standard Abbe refractometry"}