{"ref": {"title": "Hydroxyethyl Group Effect on Properties of Bis[(trifluoromethyl)sulfonyl]imide-Type Ionic Liquids", "full": "Liu, Q.; Zhao, L.; Ma, L.; Chu, J.; Wang, J.; Zang, Y. (2020) J. Chem. Eng. Data 65(10), 4780-4789."}, "constr": [], "phases": ["Liquid"], "components": [{"formula": "C<SUB>10</SUB>H<SUB>18</SUB>F<SUB>6</SUB>N<SUB>2</SUB>O<SUB>4</SUB>S<SUB>2</SUB>", "name": "1-methyl-1-propylpyrrolidinium bis[(trifluoromethyl)sulfonyl]imide", "idout": "ABabds", "mw": "408.37", "sample": [["Source:", "synthesized by the authors"], ["Purification:", "NMR (proton)"], ["Purity:", "99 mass %"]]}], "title": "Refraction, surface tension, and speed of sound: Refractive index (Na D-line)", "dhead": [["Temperature, K", null], ["Pressure, kPa", null], ["Refractive index (Na D-line)", "Liquid"]], "data": [[["288.15"], ["101.3"], ["1.4237", "0.0011"]], [["293.15"], ["101.3"], ["1.4222", "0.0011"]], [["298.15"], ["101.3"], ["1.4206", "0.0011"]], [["303.15"], ["101.3"], ["1.4193", "0.0011"]], [["308.15"], ["101.3"], ["1.4179", "0.0011"]], [["313.15"], ["101.3"], ["1.4165", "0.0011"]], [["318.15"], ["101.3"], ["1.4152", "0.0011"]], [["323.15"], ["101.3"], ["1.4137", "0.0011"]], [["328.15"], ["101.3"], ["1.4125", "0.0011"]], [["333.15"], ["101.3"], ["1.4111", "0.0011"]], [["338.15"], ["101.3"], ["1.4096", "0.0011"]], [["343.15"], ["101.3"], ["1.4083", "0.0011"]], [["348.15"], ["101.3"], ["1.4067", "0.0011"]]], "solvent": null, "footer": "", "expmeth": "Standard Abbe refractometry"}