{"expmeth": "Minimum deviation angle method", "data": [[["279.902"], ["82"], ["632.8"], ["1.4126", "0.0003"]], [["281.966"], ["82"], ["632.8"], ["1.4106", "0.0003"]], [["283.724"], ["82"], ["632.8"], ["1.4088", "0.0003"]], [["284.941"], ["82"], ["632.8"], ["1.4073", "0.0003"]], [["285.795"], ["82"], ["632.8"], ["1.4064", "0.0003"]], [["286.616"], ["82"], ["632.8"], ["1.4052", "0.0003"]], [["287.131"], ["82"], ["632.8"], ["1.4047", "0.0003"]], [["287.608"], ["82"], ["632.8"], ["1.4038", "0.0003"]], [["288.004"], ["82"], ["632.8"], ["1.4031", "0.0003"]], [["288.394"], ["82"], ["632.8"], ["1.4025", "0.0003"]], [["288.762"], ["82"], ["632.8"], ["1.4018", "0.0003"]], [["289.078"], ["82"], ["632.8"], ["1.4011", "0.0003"]], [["289.37"], ["82"], ["632.8"], ["1.4004", "0.0003"]], [["289.621"], ["82"], ["632.8"], ["1.3998", "0.0003"]], [["289.859"], ["82"], ["632.8"], ["1.3992", "0.0003"]], [["290.059"], ["82"], ["632.8"], ["1.3987", "0.0003"]], [["290.218"], ["82"], ["632.8"], ["1.3982", "0.0003"]], [["290.354"], ["82"], ["632.8"], ["1.3977", "0.0003"]], [["290.453"], ["82"], ["632.8"], ["1.3973", "0.0003"]], [["290.488"], ["82"], ["632.8"], ["1.3972", "0.0003"]], [["290.569"], ["82"], ["632.8"], ["1.3969", "0.0003"]], [["290.636"], ["82"], ["632.8"], ["1.3965", "0.0004"]], [["290.706"], ["82"], ["632.8"], ["1.3962", "0.0004"]], [["290.761"], ["82"], ["632.8"], ["1.3958", "0.0004"]], [["290.806"], ["82"], ["632.8"], ["1.3956", "0.0003"]], [["290.849"], ["82"], ["632.8"], ["1.3954", "0.0004"]], [["290.887"], ["82"], ["632.8"], ["1.3951", "0.0004"]], [["290.919"], ["82"], ["632.8"], ["1.3949", "0.0004"]], [["290.952"], ["82"], ["632.8"], ["1.3946", "0.0005"]], [["290.976"], ["82"], ["632.8"], ["1.3943", "0.0006"]], [["290.996"], ["82"], ["632.8"], ["1.3941", "0.0007"]], [["291.017"], ["82"], ["632.8"], ["1.3937", "0.0007"]], [["291.034"], ["82"], ["632.8"], ["1.3934", "0.0007"]], [["291.05"], ["82"], ["632.8"], ["1.3931", "0.0009"]], [["291.065"], ["82"], ["632.8"], ["1.3928", "0.0008"]], [["291.077"], ["82"], ["632.8"], ["1.3926", "0.0008"]], [["291.084"], ["82"], ["632.8"], ["1.3923", "0.0009"]], [["291.093"], ["82"], ["632.8"], ["1.392", "0.0011"]], [["291.096"], ["82"], ["632.8"], ["1.3918", "0.0012"]], [["291.099"], ["82"], ["632.8"], ["1.3914", "0.0014"]], [["291.101"], ["82"], ["632.8"], ["1.3913", "0.0014"]]], "solvent": null, "footer": "", "dhead": [["Temperature, K", null], ["Pressure, kPa", null], ["Wavelength, A", "Liquid mixture 2"], ["Refractive index", "Liquid mixture 2"]], "components": [{"name": "propan-2-ol", "formula": "C<SUB>3</SUB>H<SUB>8</SUB>O", "mw": "60.10", "idout": "AALcwx", "sample": [["Source:", "commercial source"], ["Initial purification:", "stated by supplier"], ["Initial purity:", "99 mass %"], ["Final purification:", "Karl Fischer titration"], ["Final purity:", "0.0064 water mass %(molecular sieve treatment)"]]}, {"sample": [["Source:", "commercial source"], ["Initial purification:", "stated by supplier"], ["Initial purity:", "99 mass %"], ["Final purification:", "Karl Fischer titration"], ["Final purity:", "0.0058 water mass %(dried in a desiccator;dried by vacuum heating)"]], "mw": "254.08", "idout": "AAwscj", "name": "1-hexyl-3-methylimidazolium tetrafluoroborate", "formula": "C<SUB>10</SUB>H<SUB>19</SUB>BF<SUB>4</SUB>N<SUB>2</SUB>"}], "title": "Refraction, surface tension, and speed of sound: Refractive index", "phases": ["Liquid mixture 2", "Liquid mixture 1"], "ref": {"full": "Zhang, X.; Xu, C.; Zheng, P.; Yin, T.; Shen, W. (2016) J. Chem. Thermodyn. 100, 116-123.", "title": "Asymmetric criticality of ionic solution containing 1-hexyl-3-methylimidazolium tetrafluoroborate and 2-propanol"}, "constr": []}