{"constr": [], "ref": {"full": "Seki, S.; Tsuzuki, S.; Hayamizu, K.; Umebayashi, Y.; Serizawa, N.; Takei, K.; Miyashiro, H. (2012) J. Chem. Eng. Data 57(8), 2211-2216.", "title": "Comprehensive Refractive Index Property for Room-Temperature Ionic Liquids"}, "phases": ["Liquid"], "components": [{"idout": "ABDWxN", "mw": "288.28", "name": "1-ethylpyridinium bis(fluorosulfonyl)amide", "formula": "C<SUB>7</SUB>H<SUB>10</SUB>F<SUB>2</SUB>N<SUB>2</SUB>O<SUB>4</SUB>S<SUB>2</SUB>", "sample": [["Source:", "commercial source"], ["Initial purification:", "stated by supplier"], ["Initial purity:", "98 mass %"], ["Final purification:", "Karl Fischer titration"], ["Final purity:", "0.01 water mass %(dried by vacuum heating)"]]}], "title": "Refraction, surface tension, and speed of sound: Refractive index (Na D-line)", "dhead": [["Temperature, K", null], ["Pressure, kPa", null], ["Refractive index (Na D-line)", "Liquid"]], "data": [[["283.15"], ["101.325"], ["1.47477", "0.00064"]], [["288.15"], ["101.325"], ["1.47331", "0.00064"]], [["293.15"], ["101.325"], ["1.47185", "0.00064"]], [["298.15"], ["101.325"], ["1.47038", "0.00064"]], [["303.15"], ["101.325"], ["1.4689", "0.00064"]], [["308.15"], ["101.325"], ["1.46745", "0.00063"]], [["313.15"], ["101.325"], ["1.46602", "0.00063"]], [["318.15"], ["101.325"], ["1.46458", "0.00063"]], [["323.15"], ["101.325"], ["1.46315", "0.00063"]], [["328.15"], ["101.325"], ["1.46174", "0.00063"]], [["333.15"], ["101.325"], ["1.46032", "0.00063"]], [["338.15"], ["101.325"], ["1.45895", "0.00063"]], [["343.15"], ["101.325"], ["1.45754", "0.00063"]], [["348.15"], ["101.325"], ["1.4561", "0.00063"]], [["353.15"], ["101.325"], ["1.45476", "0.00063"]]], "solvent": null, "footer": "", "expmeth": "Standard Abbe refractometry"}