{"ref": {"title": "Density and Refractive Index of Binary Mixtures of Two 1-Alkyl-3-methylimidazolium Ionic Liquids with 1,4-Dioxane and Ethylene Glycol", "full": "Ciocirlan, O.; Croitoru, O.; Iulian, O. (2014) J. Chem. Eng. Data 59(4), 1165-1174."}, "constr": [], "phases": ["Liquid"], "dhead": [["Temperature, K", null], ["Mole fraction of 1-butyl-3-methylimidazolium tetrafluoroborate", "Liquid"], ["Pressure, kPa", null], ["Refractive index (Na D-line)", "Liquid"]], "title": "Refraction, surface tension, and speed of sound: Refractive index (Na D-line)", "components": [{"name": "1,2-ethanediol", "formula": "C<SUB>2</SUB>H<SUB>6</SUB>O<SUB>2</SUB>", "idout": "AALwIY", "mw": "62.07", "sample": [["Source:", "commercial source"], ["Purification:", "stated by supplier"], ["Purity:", "99.5 mass %"], ["Purity analysis:", "molecular sieve treatment"]]}, {"name": "1-butyl-3-methylimidazolium tetrafluoroborate", "formula": "C<SUB>8</SUB>H<SUB>15</SUB>BF<SUB>4</SUB>N<SUB>2</SUB>", "mw": "226.03", "idout": "AArYBF", "sample": [["Source:", "commercial source"], ["Purification:", "stated by supplier"], ["Purity:", "99 mass %"], ["Purity analysis:", "none used"]]}], "expmeth": "Standard Abbe refractometry", "footer": "", "data": [[["298.15"], ["0"], ["101"], ["1.43", "0.0004"]], [["298.15"], ["0.0895"], ["101"], ["1.4276", "0.0004"]], [["298.15"], ["0.1758"], ["101"], ["1.4257", "0.0004"]], [["298.15"], ["0.3578"], ["101"], ["1.4231", "0.0004"]], [["298.15"], ["0.4397"], ["101"], ["1.4224", "0.0004"]], [["298.15"], ["0.6482"], ["101"], ["1.4217", "0.0004"]], [["298.15"], ["0.8121"], ["101"], ["1.4216", "0.0004"]], [["298.15"], ["1"], ["101"], ["1.4215", "0.0004"]], [["303.15"], ["0"], ["101"], ["1.4285", "0.0004"]], [["303.15"], ["0.0895"], ["101"], ["1.4258", "0.0004"]], [["303.15"], ["0.1758"], ["101"], ["1.4239", "0.0004"]], [["303.15"], ["0.3578"], ["101"], ["1.4216", "0.0004"]], [["303.15"], ["0.4397"], ["101"], ["1.4211", "0.0004"]], [["303.15"], ["0.6482"], ["101"], ["1.4205", "0.0004"]], [["303.15"], ["0.8121"], ["101"], ["1.4204", "0.0004"]], [["303.15"], ["1"], ["101"], ["1.4202", "0.0004"]], [["313.15"], ["0"], ["101"], ["1.4258", "0.0004"]], [["313.15"], ["0.0895"], ["101"], ["1.4231", "0.0004"]], [["313.15"], ["0.1758"], ["101"], ["1.4212", "0.0004"]], [["313.15"], ["0.3578"], ["101"], ["1.4188", "0.0004"]], [["313.15"], ["0.4397"], ["101"], ["1.4182", "0.0004"]], [["313.15"], ["0.6482"], ["101"], ["1.4178", "0.0004"]], [["313.15"], ["0.8121"], ["101"], ["1.4179", "0.0004"]], [["313.15"], ["1"], ["101"], ["1.4179", "0.0004"]], [["323.15"], ["0"], ["101"], ["1.4229", "0.0004"]], [["323.15"], ["0.0895"], ["101"], ["1.4203", "0.0004"]], [["323.15"], ["0.1758"], ["101"], ["1.4184", "0.0004"]], [["323.15"], ["0.3578"], ["101"], ["1.4159", "0.0004"]], [["323.15"], ["0.4397"], ["101"], ["1.4154", "0.0004"]], [["323.15"], ["0.6482"], ["101"], ["1.415", "0.0004"]], [["323.15"], ["0.8121"], ["101"], ["1.4152", "0.0004"]], [["323.15"], ["1"], ["101"], ["1.4153", "0.0004"]]], "solvent": null}