{"components": [{"name": "1-ethyl-3-methylimidazolium bromide", "formula": "C<SUB>6</SUB>H<SUB>11</SUB>BrN<SUB>2</SUB>", "mw": "191.07", "idout": "AAkmTS", "sample": [["Source:", "commercial source"], ["Purification:", "stated by supplier"], ["Purity:", "99 mass %"], ["Purity analysis:", "dried by vacuum heating"]]}, {"formula": "O<SUB>4</SUB>Rb<SUB>2</SUB>S", "name": "rubidium sulfate", "mw": "266.99", "idout": "AAzRcq", "sample": [["Source:", "commercial source"], ["Purification:", "stated by supplier"], ["Purity:", "99.5 mass %"], ["Purity analysis:", "dried by vacuum heating"]]}, {"sample": [["Source:", "commercial source"], ["Purification:", "estimated by the compiler"], ["Purity:", "99.9 mol %(fractional distillation)"]], "formula": "H<SUB>2</SUB>O", "name": "water", "mw": "18.02", "idout": "AADYJk"}], "title": "Refraction, surface tension, and speed of sound: Refractive index (Na D-line)", "dhead": [["Temperature, K", null], ["Weight fraction of 1-ethyl-3-methylimidazolium bromide", "Liquid"], ["Weight fraction of rubidium sulfate", "Liquid"], ["Pressure, kPa", null], ["Refractive index (Na D-line)", "Liquid"]], "data": [[["298.2"], ["0"], ["0.337"], ["100"], ["1.36524", "0.0013"]], [["298.2"], ["0.0614"], ["0.275"], ["100"], ["1.36898", "0.0013"]], [["298.2"], ["0.1339"], ["0.21"], ["100"], ["1.37563", "0.0017"]], [["298.2"], ["0.2169"], ["0.147"], ["100"], ["1.38436", "0.0023"]], [["298.2"], ["0.3068"], ["0.095"], ["100"], ["1.39516", "0.0021"]], [["298.2"], ["0.4009"], ["0.054"], ["100"], ["1.40861", "0.0025"]], [["298.2"], ["0.495"], ["0.026"], ["100"], ["1.42485", "0.0027"]], [["298.2"], ["0.587"], ["0.01"], ["100"], ["1.44379", "0.0031"]], [["298.2"], ["0.6753"], ["0.004"], ["100"], ["1.46494", "0.0026"]], [["298.2"], ["0.7608"], ["0.0025"], ["100"], ["1.48812", "0.003"]], [["298.2"], ["0.8471"], ["0.0004"], ["100"], ["1.51214", "0.0013"]], [["308.2"], ["0"], ["0.359"], ["100"], ["1.36619", "0.0013"]], [["308.2"], ["0.0606"], ["0.285"], ["100"], ["1.36864", "0.0016"]], [["308.2"], ["0.1341"], ["0.209"], ["100"], ["1.37493", "0.0014"]], [["308.2"], ["0.2129"], ["0.163"], ["100"], ["1.38401", "0.0025"]], [["308.2"], ["0.3036"], ["0.104"], ["100"], ["1.39461", "0.0025"]], [["308.2"], ["0.398"], ["0.061"], ["100"], ["1.40926", "0.0022"]], [["308.2"], ["0.4926"], ["0.031"], ["100"], ["1.42514", "0.0027"]], [["308.2"], ["0.5785"], ["0.025"], ["100"], ["1.44538", "0.0028"]], [["308.2"], ["0.6654"], ["0.018"], ["100"], ["1.46694", "0.0013"]], [["308.2"], ["0.7616"], ["0.0014"], ["100"], ["1.48528", "0.0015"]], [["308.2"], ["0.8468"], ["0.0008"], ["100"], ["1.50985", "0.0013"]]], "solvent": null, "footer": "", "expmeth": "Standard Abbe refractometry", "constr": [], "ref": {"title": "Solid - liquid and liquid - liquid equilibrium of the systems composed of [Cnmim]Cl/Br (n = 2, 4, 6, 8) + Rb2SO4/Cs2SO4 + H2O", "full": "Li, S.; Li, S.; Zhai, Q.; Jiang, Y.; Hu, M. (2019) J. Mol. Liq. 273, 455-462."}, "phases": ["Liquid"]}