{"dhead": [["Temperature, K", null], ["Mole fraction of 1-methyl-3-octylimidazolium tetrafluoroborate", "Liquid mixture 2"], ["Wavelength, A", "Liquid mixture 2"], ["Refractive index", "Liquid mixture 2"]], "components": [{"sample": [["Source:", "commercial source"], ["Purification:", "stated by supplier"], ["Purity:", "99 mass %"], ["Purity analysis:", "molecular sieve treatment"]], "idout": "AAQxVB", "mw": "88.15", "formula": "C<SUB>5</SUB>H<SUB>12</SUB>O", "name": "pentan-2-ol"}, {"mw": "282.13", "idout": "ABCNhW", "formula": "C<SUB>12</SUB>H<SUB>23</SUB>BF<SUB>4</SUB>N<SUB>2</SUB>", "name": "1-methyl-3-octylimidazolium tetrafluoroborate", "sample": [["Source:", "commercial source"], ["Initial purification:", "stated by supplier"], ["Initial purity:", "99 mass %"], ["Final purification:", "Karl Fischer titration"], ["Final purity:", "0.0158 water mass %(dried in a desiccator;dried by vacuum heating)"]]}], "title": "Refraction, surface tension, and speed of sound: Refractive index", "expmeth": "Minimum deviation", "solvent": null, "data": [[["284.591"], ["0.347"], ["623.8"], ["1.4237", "0.0004"]], [["285.292"], ["0.338"], ["623.8"], ["1.4232", "0.0003"]], [["286.127"], ["0.332"], ["623.8"], ["1.4227", "0.0003"]], [["286.889"], ["0.319"], ["623.8"], ["1.422", "0.0003"]], [["287.648"], ["0.315"], ["623.8"], ["1.4216", "0.0003"]], [["288.254"], ["0.307"], ["623.8"], ["1.4211", "0.0003"]], [["288.918"], ["0.293"], ["623.8"], ["1.4204", "0.0003"]], [["289.539"], ["0.288"], ["623.8"], ["1.42", "0.0003"]], [["290.07"], ["0.279"], ["623.8"], ["1.4195", "0.0003"]], [["290.614"], ["0.271"], ["623.8"], ["1.419", "0.0003"]], [["291.076"], ["0.264"], ["623.8"], ["1.4186", "0.0003"]], [["291.547"], ["0.255"], ["623.8"], ["1.4181", "0.0003"]], [["292.022"], ["0.247"], ["623.8"], ["1.4176", "0.0003"]], [["292.463"], ["0.235"], ["623.8"], ["1.417", "0.0003"]], [["292.844"], ["0.229"], ["623.8"], ["1.4166", "0.0003"]], [["293.146"], ["0.221"], ["623.8"], ["1.4162", "0.0003"]], [["293.406"], ["0.211"], ["623.8"], ["1.4157", "0.0003"]], [["293.632"], ["0.206"], ["623.8"], ["1.4154", "0.0003"]], [["293.782"], ["0.202"], ["623.8"], ["1.4152", "0.0003"]], [["293.887"], ["0.201"], ["623.8"], ["1.4151", "0.0003"]], [["293.993"], ["0.197"], ["623.8"], ["1.4149", "0.0003"]], [["294.086"], ["0.193"], ["623.8"], ["1.4147", "0.0003"]], [["294.186"], ["0.189"], ["623.8"], ["1.4145", "0.0003"]], [["294.268"], ["0.188"], ["623.8"], ["1.4144", "0.0003"]], [["294.349"], ["0.184"], ["623.8"], ["1.4142", "0.0003"]], [["294.424"], ["0.18"], ["623.8"], ["1.414", "0.0003"]], [["294.488"], ["0.175"], ["623.8"], ["1.4138", "0.0003"]], [["294.543"], ["0.174"], ["623.8"], ["1.4137", "0.0003"]], [["294.596"], ["0.172"], ["623.8"], ["1.4136", "0.0004"]], [["294.641"], ["0.168"], ["623.8"], ["1.4134", "0.0004"]], [["294.679"], ["0.166"], ["623.8"], ["1.4133", "0.0004"]], [["294.73"], ["0.162"], ["623.8"], ["1.4131", "0.0003"]], [["294.767"], ["0.157"], ["623.8"], ["1.4129", "0.0003"]], [["294.803"], ["0.153"], ["623.8"], ["1.4127", "0.0003"]], [["294.834"], ["0.149"], ["623.8"], ["1.4125", "0.0003"]], [["294.866"], ["0.145"], ["623.8"], ["1.4123", "0.0004"]], [["294.878"], ["0.143"], ["623.8"], ["1.4122", "0.0004"]], [["294.892"], ["0.141"], ["623.8"], ["1.4121", "0.0003"]], [["294.901"], ["0.139"], ["623.8"], ["1.412", "0.0003"]], [["294.908"], ["0.134"], ["623.8"], ["1.4118", "0.0003"]], [["294.913"], ["0.132"], ["623.8"], ["1.4117", "0.0003"]], [["294.918"], ["0.13"], ["623.8"], ["1.4116", "0.0004"]], [["294.923"], ["0.128"], ["623.8"], ["1.4115", "0.0004"]], [["294.926"], ["0.126"], ["623.8"], ["1.4114", "0.0004"]], [["294.929"], ["0.124"], ["623.8"], ["1.4113", "0.0004"]], [["294.931"], ["0.122"], ["623.8"], ["1.4112", "0.0004"]], [["294.933"], ["0.118"], ["623.8"], ["1.411", "0.0004"]]], "footer": "", "constr": [], "ref": {"full": "Zhang, X.; Cui, Z.; Yin, T.; Zheng, P.; Zhao, J. (2015) Fluid Phase Equilib. 394, 156-164.", "title": "Measurements of the liquid liquid phase equilibria of binary solutions of 1-methyl-3-octylimidazolium tetrafluoroborate with 1-heptanol or 2-pentanol"}, "phases": ["Liquid mixture 2", "Liquid mixture 1"]}