{"title": "Refraction, surface tension, and speed of sound: Refractive index (Na D-line)", "components": [{"idout": "AAtWDT", "mw": "236.29", "name": "1-ethyl-3-methylimidazolium ethyl sulfate", "formula": "C<SUB>8</SUB>H<SUB>16</SUB>N<SUB>2</SUB>O<SUB>4</SUB>S", "sample": [["Source:", "commercial source"], ["Initial purification:", "stated by supplier"], ["Initial purity:", "99.2 mass %"], ["Final purification:", "not known"], ["Final purity:", "0.5 water mass %(dried in a desiccator)"]]}], "dhead": [["Temperature, K", null], ["Pressure, kPa", null], ["Refractive index (Na D-line)", "Liquid"]], "footer": "", "data": [[["293.2"], ["101.325"], ["1.4803", "0.0007"]], [["298.2"], ["101.325"], ["1.4789", "0.0007"]], [["299.2"], ["101.325"], ["1.4787", "0.0007"]], [["300.2"], ["101.325"], ["1.4784", "0.0007"]], [["301.2"], ["101.325"], ["1.4782", "0.0007"]], [["302.2"], ["101.325"], ["1.4779", "0.0007"]], [["303.2"], ["101.325"], ["1.4776", "0.0007"]], [["304.2"], ["101.325"], ["1.4774", "0.0007"]], [["305.2"], ["101.325"], ["1.4771", "0.0007"]], [["306.2"], ["101.325"], ["1.4769", "0.0007"]], [["307.2"], ["101.325"], ["1.4766", "0.0007"]], [["308.2"], ["101.325"], ["1.4763", "0.0007"]]], "solvent": null, "expmeth": "Standard Abbe refractometry", "ref": {"title": "Density and refractive index measurements of 1-ethyl-3-methylimidazolium-based ionic liquids", "full": "Soriano, A. N.; Doma Jr., B. T.; Li, M.-H. (2010) J. Taiwan Inst. Chem. Eng. 41, 115-121."}, "constr": [], "phases": ["Liquid"]}