{"ref": {"full": "Suneetha, P.; Srinivasa Krishna, T.; Gowrisankar, M.; Ravindhranath, K.; Ramchandran, D. (2017) J. Chem. Thermodyn. 108, 181-192.", "title": "Molecular interaction between binary mixtures 1-butyl-3-methylimidazolium bis(trifluoromethylsulfonyl)imide with N-Vinyl-2-pyrrolidinone at different temperatures"}, "constr": [], "phases": ["Liquid"], "components": [{"sample": [["Source:", "commercial source"], ["Initial purification:", "stated by supplier"], ["Initial purity:", "97 mass %"], ["Final purification:", "gas chromatography;Karl Fischer titration"], ["Final purity:", "97.6 mass %;0.015 water mass %(de-gassed by evacuation;fractional distillation;molecular sieve treatment)"]], "formula": "C<SUB>6</SUB>H<SUB>9</SUB>NO", "name": "N-vinylpyrrolidone", "idout": "AAVTDi", "mw": "111.14"}, {"sample": [["Source:", "commercial source"], ["Initial purification:", "stated by supplier"], ["Initial purity:", "99.5 mass %"], ["Final purification:", "Karl Fischer titration"], ["Final purity:", "0.0040 water mass %(de-gassed by evacuation;dried by vacuum heating;molecular sieve treatment)"]], "mw": "419.36", "idout": "ABchwx", "formula": "C<SUB>10</SUB>H<SUB>15</SUB>F<SUB>6</SUB>N<SUB>3</SUB>O<SUB>4</SUB>S<SUB>2</SUB>", "name": "1-butyl-3-methylimidazolium bis(trifluoromethylsulfonyl)imide"}], "title": "Refraction, surface tension, and speed of sound: Refractive index (Na D-line)", "dhead": [["Temperature, K", null], ["Mole fraction of 1-butyl-3-methylimidazolium bis(trifluoromethylsulfonyl)imide", "Liquid"], ["Pressure, kPa", null], ["Refractive index (Na D-line)", "Liquid"]], "data": [[["298.15"], ["0"], ["100"], ["1.51119", "0.0017"]], [["298.15"], ["0.1011"], ["100"], ["1.49062", "0.0017"]], [["298.15"], ["0.21"], ["100"], ["1.47455", "0.0017"]], [["298.15"], ["0.2968"], ["100"], ["1.46474", "0.0017"]], [["298.15"], ["0.3922"], ["100"], ["1.45603", "0.0017"]], [["298.15"], ["0.4939"], ["100"], ["1.4486", "0.0016"]], [["298.15"], ["0.5883"], ["100"], ["1.44302", "0.0016"]], [["298.15"], ["0.6852"], ["100"], ["1.43821", "0.0016"]], [["298.15"], ["0.7901"], ["100"], ["1.4338", "0.0016"]], [["298.15"], ["0.8623"], ["100"], ["1.43114", "0.0016"]], [["298.15"], ["1"], ["100"], ["1.42671", "0.0016"]], [["303.15"], ["0"], ["100"], ["1.50886", "0.0017"]], [["303.15"], ["0.1011"], ["100"], ["1.48844", "0.0017"]], [["303.15"], ["0.21"], ["100"], ["1.47255", "0.0017"]], [["303.15"], ["0.2968"], ["100"], ["1.46284", "0.0017"]], [["303.15"], ["0.3922"], ["100"], ["1.45424", "0.0017"]], [["303.15"], ["0.4939"], ["100"], ["1.44689", "0.0016"]], [["303.15"], ["0.5883"], ["100"], ["1.44135", "0.0016"]], [["303.15"], ["0.6852"], ["100"], ["1.43659", "0.0016"]], [["303.15"], ["0.7901"], ["100"], ["1.43222", "0.0016"]], [["303.15"], ["0.8623"], ["100"], ["1.42959", "0.0016"]], [["303.15"], ["1"], ["100"], ["1.42523", "0.0016"]], [["308.15"], ["0"], ["100"], ["1.5065", "0.0017"]], [["308.15"], ["0.1011"], ["100"], ["1.48625", "0.0017"]], [["308.15"], ["0.21"], ["100"], ["1.47053", "0.0017"]], [["308.15"], ["0.2968"], ["100"], ["1.46093", "0.0017"]], [["308.15"], ["0.3922"], ["100"], ["1.45244", "0.0017"]], [["308.15"], ["0.4939"], ["100"], ["1.44517", "0.0016"]], [["308.15"], ["0.5883"], ["100"], ["1.43967", "0.0016"]], [["308.15"], ["0.6852"], ["100"], ["1.43495", "0.0016"]], [["308.15"], ["0.7901"], ["100"], ["1.43063", "0.0016"]], [["308.15"], ["0.8623"], ["100"], ["1.42804", "0.0016"]], [["308.15"], ["1"], ["100"], ["1.42374", "0.0016"]], [["313.15"], ["0"], ["100"], ["1.50415", "0.0017"]], [["313.15"], ["0.1011"], ["100"], ["1.48406", "0.0017"]], [["313.15"], ["0.21"], ["100"], ["1.46851", "0.0017"]], [["313.15"], ["0.2968"], ["100"], ["1.45902", "0.0017"]], [["313.15"], ["0.3922"], ["100"], ["1.45064", "0.0017"]], [["313.15"], ["0.4939"], ["100"], ["1.44345", "0.0016"]], [["313.15"], ["0.5883"], ["100"], ["1.43799", "0.0016"]], [["313.15"], ["0.6852"], ["100"], ["1.43331", "0.0016"]], [["313.15"], ["0.7901"], ["100"], ["1.42904", "0.0016"]], [["313.15"], ["0.8623"], ["100"], ["1.42649", "0.0016"]], [["313.15"], ["1"], ["100"], ["1.42225", "0.0016"]], [["318.15"], ["0"], ["100"], ["1.50181", "0.0017"]], [["318.15"], ["0.1011"], ["100"], ["1.48187", "0.0017"]], [["318.15"], ["0.21"], ["100"], ["1.46649", "0.0017"]], [["318.15"], ["0.2968"], ["100"], ["1.45711", "0.0017"]], [["318.15"], ["0.3922"], ["100"], ["1.44884", "0.0017"]], [["318.15"], ["0.4939"], ["100"], ["1.44172", "0.0016"]], [["318.15"], ["0.5883"], ["100"], ["1.43631", "0.0016"]], [["318.15"], ["0.6852"], ["100"], ["1.43167", "0.0016"]], [["318.15"], ["0.7901"], ["100"], ["1.42745", "0.0016"]], [["318.15"], ["0.8623"], ["100"], ["1.42493", "0.0016"]], [["318.15"], ["1"], ["100"], ["1.42076", "0.0016"]], [["323.15"], ["0"], ["100"], ["1.49948", "0.0017"]], [["323.15"], ["0.1011"], ["100"], ["1.47968", "0.0017"]], [["323.15"], ["0.21"], ["100"], ["1.46447", "0.0017"]], [["323.15"], ["0.2968"], ["100"], ["1.4552", "0.0017"]], [["323.15"], ["0.3922"], ["100"], ["1.44702", "0.0017"]], [["323.15"], ["0.4939"], ["100"], ["1.43997", "0.0016"]], [["323.15"], ["0.5883"], ["100"], ["1.43461", "0.0016"]], [["323.15"], ["0.6852"], ["100"], ["1.43001", "0.0016"]], [["323.15"], ["0.7901"], ["100"], ["1.42584", "0.0016"]], [["323.15"], ["0.8623"], ["100"], ["1.42334", "0.0016"]], [["323.15"], ["1"], ["100"], ["1.41923", "0.0016"]]], "solvent": null, "footer": "", "expmeth": "Standard Abbe refractometry"}