{"dhead": [["Mole fraction of water", "Liquid"], ["Pressure, kPa", null], ["Temperature, K", null], ["Refractive index (Na D-line)", "Liquid"]], "components": [{"mw": "18.02", "idout": "AADYJk", "formula": "H<SUB>2</SUB>O", "name": "water", "sample": [["Source:", "commercial source"], ["Purification:", "estimated by the compiler"], ["Purity:", "99.9 mass %(fractional distillation)"]]}, {"sample": [["Source:", "commercial source"], ["Initial purification:", "stated by supplier"], ["Initial purity:", "95 % (basis not specified)"], ["Final purification:", "Karl Fischer titration"], ["Final purity:", "0.11 water mass %(dried by vacuum heating)"]], "name": "1-butyl-3-methylimidazolium acetate", "formula": "C<SUB>10</SUB>H<SUB>18</SUB>N<SUB>2</SUB>O<SUB>2</SUB>", "mw": "198.27", "idout": "AAmGQS"}], "title": "Refraction, surface tension, and speed of sound: Refractive index (Na D-line)", "expmeth": "Standard Abbe refractometry", "data": [[["0"], ["101"], ["298.15"], ["1.4949", "0.001"]], [["0.1109"], ["101"], ["298.15"], ["1.49321", "0.00094"]], [["0.2026"], ["101"], ["298.15"], ["1.49206", "0.00086"]], [["0.2683"], ["101"], ["298.15"], ["1.49085", "0.0008"]], [["0.415"], ["101"], ["298.15"], ["1.48785", "0.00067"]], [["0.5113"], ["101"], ["298.15"], ["1.48476", "0.00059"]], [["0.6166"], ["101"], ["298.15"], ["1.47932", "0.0005"]], [["0.6604"], ["101"], ["298.15"], ["1.47595", "0.00047"]], [["0.6842"], ["101"], ["298.15"], ["1.4739", "0.00045"]], [["0.7104"], ["101"], ["298.15"], ["1.47093", "0.00044"]], [["0.7985"], ["101"], ["298.15"], ["1.45815", "0.00039"]], [["0.8964"], ["101"], ["298.15"], ["1.42833", "0.00042"]], [["1"], ["101"], ["298.15"], ["1.33258", "0.00031"]]], "solvent": null, "footer": "", "constr": [], "ref": {"title": "Recovery of dialkylimidazolium-based ionic liquids from their mixtures with acetone or water by flash distillation", "full": "Caeiro, N.; Wojtczuk, M. K.; Rodriguez, H.; Rodil, E.; Soto, A. (2022) J. Mol. Liq. 346, 118292."}, "phases": ["Liquid"]}