{"constr": [], "ref": {"full": "Wu, D.; Wu, B.; Zhang, Y. M.; Wang, H. P. (2010) J. Chem. Eng. Data 55(2), 621-624.", "title": "Density, Viscosity, Refractive Index and Conductivity of 1-Allyl-3-methylimidazolium Chloride + Water Mixture"}, "phases": ["Liquid"], "components": [{"mw": "18.02", "idout": "AADYJk", "name": "water", "formula": "H<SUB>2</SUB>O", "sample": [["Purity analysis:", "unspecified"]]}, {"name": "1-allyl-3-methylimidazolium chloride", "formula": "C<SUB>7</SUB>H<SUB>11</SUB>ClN<SUB>2</SUB>", "mw": "158.63", "idout": "AAeaVk", "sample": [["Source:", "commercial source"], ["Initial purification:", "NMR (proton)"], ["Initial purity:", "99 % (basis not specified)"], ["Final purification:", "Karl Fischer titration;Karl Fischer titration"], ["Final purity:", "0.18 water mass %;0.013 halide impurity mass %"]]}], "title": "Refraction, surface tension, and speed of sound: Refractive index (Na D-line)", "dhead": [["Mole fraction of 1-allyl-3-methylimidazolium chloride", "Liquid"], ["Temperature, K", null], ["Pressure, kPa", null], ["Refractive index (Na D-line)", "Liquid"]], "data": [[["0.000171"], ["298.15"], ["101"], ["1.3329", "0.0051"]], [["0.000362"], ["298.15"], ["101"], ["1.333", "0.0051"]], [["0.000553"], ["298.15"], ["101"], ["1.3333", "0.0051"]], [["0.000754"], ["298.15"], ["101"], ["1.3336", "0.0051"]], [["0.001151"], ["298.15"], ["101"], ["1.334", "0.0051"]], [["0.001575"], ["298.15"], ["101"], ["1.3346", "0.0051"]], [["0.002478"], ["298.15"], ["101"], ["1.336", "0.0051"]], [["0.003359"], ["298.15"], ["101"], ["1.3375", "0.0051"]], [["0.004859"], ["298.15"], ["101"], ["1.34", "0.0051"]], [["0.006386"], ["298.15"], ["101"], ["1.3421", "0.0051"]], [["0.008102"], ["298.15"], ["101"], ["1.3452", "0.0051"]], [["0.009949"], ["298.15"], ["101"], ["1.347", "0.0051"]], [["0.011785"], ["298.15"], ["101"], ["1.3495", "0.0051"]], [["0.01373"], ["298.15"], ["101"], ["1.352", "0.0051"]], [["0.017654"], ["298.15"], ["101"], ["1.3574", "0.0051"]], [["0.021561"], ["298.15"], ["101"], ["1.3635", "0.0051"]], [["0.025652"], ["298.15"], ["101"], ["1.3676", "0.0051"]], [["0.02973"], ["298.15"], ["101"], ["1.373", "0.0051"]], [["0.033936"], ["298.15"], ["101"], ["1.3775", "0.0051"]], [["0.044424"], ["298.15"], ["101"], ["1.3888", "0.0051"]], [["0.055355"], ["298.15"], ["101"], ["1.3995", "0.005"]], [["0.066464"], ["298.15"], ["101"], ["1.4084", "0.005"]], [["0.078572"], ["298.15"], ["101"], ["1.4176", "0.005"]], [["0.091376"], ["298.15"], ["101"], ["1.4315", "0.005"]], [["0.11428"], ["298.15"], ["101"], ["1.4464", "0.005"]], [["0.136948"], ["298.15"], ["101"], ["1.4574", "0.005"]], [["0.161616"], ["298.15"], ["101"], ["1.4673", "0.005"]], [["0.186711"], ["298.15"], ["101"], ["1.4742", "0.005"]], [["0.211044"], ["298.15"], ["101"], ["1.4831", "0.005"]]], "solvent": null, "footer": "", "expmeth": "Standard Abbe refractometry"}