{"ref": {"title": "Physicochemical properties of [cnmim][thr] (n = 3, 5, 6) amino acid ionic liquids", "full": "Zhang, D.; Qu, Y.; Gong, Y.-Y.; Tong, J.; Fang, D.-W.; Tong, J. (2017) J. Chem. Thermodyn. 115, 47-51."}, "constr": [], "phases": ["Liquid"], "components": [{"idout": "ABCtwq", "mw": "285.39", "name": "1-hexyl-3-methylimidazolium DL-threoninate", "formula": "C<SUB>14</SUB>H<SUB>27</SUB>N<SUB>3</SUB>O<SUB>3</SUB>", "sample": [["Source:", "synthesized by the authors"], ["Purification:", "chemical analysis"], ["Purity:", "99 mol %(dried by vacuum heating)"]]}, {"sample": [["Source:", "commercial source"], ["Purification:", "estimated by the compiler"], ["Purity:", "99.8 mass %(fractional distillation)"]], "idout": "AADYJk", "mw": "18.02", "name": "water", "formula": "H<SUB>2</SUB>O"}], "title": "Refraction, surface tension, and speed of sound: Refractive index (Na D-line)", "dhead": [["Temperature, K", null], ["Weight fraction of water", "Liquid"], ["Pressure, kPa", null], ["Refractive index (Na D-line)", "Liquid"]], "data": [[["288.15"], ["0.006"], ["100"], ["1.5042", "0.0013"]], [["288.15"], ["0.0091"], ["100"], ["1.5038", "0.0013"]], [["288.15"], ["0.012"], ["100"], ["1.5034", "0.0013"]], [["288.15"], ["0.0149"], ["100"], ["1.5031", "0.0013"]], [["288.15"], ["0.0172"], ["100"], ["1.5028", "0.0013"]], [["293.15"], ["0.006"], ["100"], ["1.5026", "0.0013"]], [["293.15"], ["0.0091"], ["100"], ["1.5023", "0.0013"]], [["293.15"], ["0.012"], ["100"], ["1.502", "0.0013"]], [["293.15"], ["0.0149"], ["100"], ["1.5017", "0.0013"]], [["293.15"], ["0.0172"], ["100"], ["1.5014", "0.0013"]], [["298.15"], ["0.006"], ["100"], ["1.5012", "0.0013"]], [["298.15"], ["0.0091"], ["100"], ["1.5009", "0.0013"]], [["298.15"], ["0.012"], ["100"], ["1.5006", "0.0013"]], [["298.15"], ["0.0149"], ["100"], ["1.5003", "0.0013"]], [["298.15"], ["0.0172"], ["100"], ["1.5", "0.0013"]], [["303.15"], ["0.006"], ["100"], ["1.4994", "0.0013"]], [["303.15"], ["0.0091"], ["100"], ["1.4991", "0.0013"]], [["303.15"], ["0.012"], ["100"], ["1.4988", "0.0013"]], [["303.15"], ["0.0149"], ["100"], ["1.4985", "0.0013"]], [["303.15"], ["0.0172"], ["100"], ["1.4982", "0.0012"]], [["308.15"], ["0.006"], ["100"], ["1.4981", "0.0013"]], [["308.15"], ["0.0091"], ["100"], ["1.4978", "0.0013"]], [["308.15"], ["0.012"], ["100"], ["1.4974", "0.0013"]], [["308.15"], ["0.0149"], ["100"], ["1.4971", "0.0013"]], [["308.15"], ["0.0172"], ["100"], ["1.4968", "0.0013"]], [["313.15"], ["0.006"], ["100"], ["1.4964", "0.0013"]], [["313.15"], ["0.0091"], ["100"], ["1.4961", "0.0013"]], [["313.15"], ["0.012"], ["100"], ["1.4958", "0.0013"]], [["313.15"], ["0.0149"], ["100"], ["1.4955", "0.0013"]], [["313.15"], ["0.0172"], ["100"], ["1.4952", "0.0012"]], [["318.15"], ["0.006"], ["100"], ["1.495", "0.0013"]], [["318.15"], ["0.0091"], ["100"], ["1.4947", "0.0013"]], [["318.15"], ["0.012"], ["100"], ["1.4944", "0.0013"]], [["318.15"], ["0.0149"], ["100"], ["1.4941", "0.0013"]], [["318.15"], ["0.0172"], ["100"], ["1.4938", "0.0013"]], [["323.15"], ["0.006"], ["100"], ["1.4933", "0.0013"]], [["323.15"], ["0.0091"], ["100"], ["1.4929", "0.0013"]], [["323.15"], ["0.012"], ["100"], ["1.4926", "0.0013"]], [["323.15"], ["0.0149"], ["100"], ["1.4922", "0.0013"]], [["323.15"], ["0.0172"], ["100"], ["1.4919", "0.0012"]], [["328.15"], ["0.006"], ["100"], ["1.4918", "0.0013"]], [["328.15"], ["0.0091"], ["100"], ["1.4914", "0.0013"]], [["328.15"], ["0.012"], ["100"], ["1.4911", "0.0013"]], [["328.15"], ["0.0149"], ["100"], ["1.4907", "0.0013"]], [["328.15"], ["0.0172"], ["100"], ["1.4904", "0.0013"]]], "solvent": null, "footer": "", "expmeth": "Standard Abbe refractometry"}