{"title": "Refraction, surface tension, and speed of sound: Refractive index (Na D-line)", "components": [{"idout": "AArYBF", "mw": "226.03", "name": "1-butyl-3-methylimidazolium tetrafluoroborate", "formula": "C<SUB>8</SUB>H<SUB>15</SUB>BF<SUB>4</SUB>N<SUB>2</SUB>", "sample": [["Source:", "commercial source"], ["Initial purification:", "stated by supplier"], ["Initial purity:", "99 mass %"], ["Final purification:", "Karl Fischer titration"], ["Final purity:", "0.03 water mass %(dried by vacuum heating)"]]}], "dhead": [["Temperature, K", null], ["Pressure, kPa", null], ["Refractive index (Na D-line)", "Liquid"]], "footer": "", "data": [[["283.15"], ["101.325"], ["1.4256", "0.00037"]], [["288.15"], ["101.325"], ["1.42434", "0.00037"]], [["293.15"], ["101.325"], ["1.42302", "0.00037"]], [["298.15"], ["101.325"], ["1.42171", "0.00037"]], [["303.15"], ["101.325"], ["1.42033", "0.00037"]], [["308.15"], ["101.325"], ["1.41885", "0.00037"]], [["313.15"], ["101.325"], ["1.41751", "0.00037"]], [["318.15"], ["101.325"], ["1.41622", "0.00037"]], [["323.15"], ["101.325"], ["1.4149", "0.00037"]], [["328.15"], ["101.325"], ["1.41364", "0.00037"]], [["333.15"], ["101.325"], ["1.41235", "0.00037"]], [["338.15"], ["101.325"], ["1.41108", "0.00037"]], [["343.15"], ["101.325"], ["1.40982", "0.00037"]], [["348.15"], ["101.325"], ["1.40862", "0.00037"]], [["353.15"], ["101.325"], ["1.40741", "0.00037"]]], "solvent": null, "expmeth": "Standard Abbe refractometry", "constr": [], "ref": {"full": "Neves, C. M. S. S.; Kurnia, K. A.; Coutinho, J. A. P.; Marrucho, I. M.; Lopes, J. N. C.; Freire, M. G.; Rebelo, L. P. N. (2013) J. Phys. Chem. B 117, 10271-10283.", "title": "Systematic Study of the Thermophysical Properties of Imidazolium- Based Ionic Liquids with Cyano-Functionalized Anions"}, "phases": ["Liquid"]}