{"ref": {"full": "Caeiro, N.; Wojtczuk, M. K.; Rodriguez, H.; Rodil, E.; Soto, A. (2022) J. Mol. Liq. 346, 118292.", "title": "Recovery of dialkylimidazolium-based ionic liquids from their mixtures with acetone or water by flash distillation"}, "constr": [], "phases": ["Liquid"], "components": [{"sample": [["Source:", "commercial source"], ["Purification:", "estimated by the compiler"], ["Purity:", "99.9 mass %(fractional distillation)"]], "name": "water", "formula": "H<SUB>2</SUB>O", "idout": "AADYJk", "mw": "18.02"}, {"sample": [["Source:", "commercial source"], ["Initial purification:", "stated by supplier"], ["Initial purity:", "95 % (basis not specified)"], ["Final purification:", "Karl Fischer titration"], ["Final purity:", "0.12 water mass %(dried by vacuum heating)"]], "formula": "C<SUB>8</SUB>H<SUB>14</SUB>N<SUB>2</SUB>O<SUB>2</SUB>", "name": "1-ethyl-3-methylimidazolium acetate", "idout": "AAgmaR", "mw": "170.21"}], "title": "Refraction, surface tension, and speed of sound: Refractive index (Na D-line)", "dhead": [["Mole fraction of water", "Liquid"], ["Pressure, kPa", null], ["Temperature, K", null], ["Refractive index (Na D-line)", "Liquid"]], "data": [[["0"], ["101"], ["298.15"], ["1.50069", "0.001"]], [["0.1306"], ["101"], ["298.15"], ["1.49883", "0.00093"]], [["0.2326"], ["101"], ["298.15"], ["1.49676", "0.00083"]], [["0.2865"], ["101"], ["298.15"], ["1.49605", "0.00078"]], [["0.3671"], ["101"], ["298.15"], ["1.49405", "0.00071"]], [["0.4047"], ["101"], ["298.15"], ["1.49276", "0.00068"]], [["0.4896"], ["101"], ["298.15"], ["1.48962", "0.00061"]], [["0.5258"], ["101"], ["298.15"], ["1.48758", "0.00058"]], [["0.5507"], ["101"], ["298.15"], ["1.48619", "0.00056"]], [["0.6155"], ["101"], ["298.15"], ["1.48192", "0.00051"]], [["0.7151"], ["101"], ["298.15"], ["1.47153", "0.00043"]], [["0.7317"], ["101"], ["298.15"], ["1.47061", "0.00042"]], [["0.8099"], ["101"], ["298.15"], ["1.45529", "0.00039"]], [["0.9053"], ["101"], ["298.15"], ["1.41896", "0.00042"]], [["1"], ["101"], ["298.15"], ["1.33258", "0.00031"]]], "solvent": null, "footer": "", "expmeth": "Standard Abbe refractometry"}