{"constr": [], "ref": {"title": "Thermophysical and thermodynamic properties of 1-ethyl-3-methylimidazolium ethylsulphate ionic liquid and its binary mixtures with pentanoic or 2-methylpropanoic acid at various temperatures", "full": "Oriyomi, O.; Arumugam, V.; Moodley, K. G.; Redhi, G. G. (2020) Phys. Chem. Liq. 58(2), 246-262."}, "phases": ["Liquid"], "components": [{"sample": [["Source:", "synthesized by the authors"], ["Initial purification:", "stated by supplier"], ["Initial purity:", "99 mass %"], ["Final purification:", "Karl Fischer titration"], ["Final purity:", "0.03 water mass %(dried by vacuum heating;solvent extraction)"]], "mw": "236.29", "idout": "AAtWDT", "formula": "C<SUB>8</SUB>H<SUB>16</SUB>N<SUB>2</SUB>O<SUB>4</SUB>S", "name": "1-ethyl-3-methylimidazolium ethyl sulfate"}], "title": "Refraction, surface tension, and speed of sound: Refractive index (Na D-line)", "dhead": [["Temperature, K", null], ["Pressure, kPa", null], ["Refractive index (Na D-line)", "Liquid"]], "solvent": null, "data": [[["288.15"], ["101.3"], ["1.4767", "0.008"]], [["288.15"], ["101.3"], ["1.4779", "0.008"]], [["293.15"], ["101.3"], ["1.475", "0.008"]], [["293.15"], ["101.3"], ["1.4761", "0.008"]], [["298.15"], ["101.3"], ["1.474", "0.008"]], [["298.15"], ["101.3"], ["1.4753", "0.008"]], [["303.15"], ["101.3"], ["1.4716", "0.008"]], [["303.15"], ["101.3"], ["1.4733", "0.008"]], [["308.15"], ["101.3"], ["1.4706", "0.008"]], [["308.15"], ["101.3"], ["1.4727", "0.008"]], [["313.15"], ["101.3"], ["1.4685", "0.008"]], [["313.15"], ["101.3"], ["1.471", "0.008"]]], "footer": "", "expmeth": "Standard Abbe refractometry"}