{"ref": {"title": "Surface tension, viscosity and electrical conductivity characteristics of new ether-functionalized ionic liquids", "full": "Wang, J.; Li, Y.; Liu, H.; Tong, J. (2022) J. Mol. Liq. 351, 118621."}, "constr": [], "phases": ["Liquid"], "components": [{"sample": [["Source:", "synthesized by the authors"], ["Purification:", "NMR (proton)"], ["Purity:", "99 mass %(dried by vacuum heating)"]], "name": "1-(2-ethoxyethyl)-3-methylimidazolium lactate", "formula": "C<SUB>11</SUB>H<SUB>20</SUB>N<SUB>2</SUB>O<SUB>4</SUB>", "idout": "AAuylj", "mw": "244.29"}, {"idout": "AADYJk", "mw": "18.02", "formula": "H<SUB>2</SUB>O", "name": "water", "sample": [["Source:", "commercial source"], ["Purification:", "estimated by the compiler"], ["Purity:", "99.9 mass %"]]}], "title": "Refraction, surface tension, and speed of sound: Refractive index (Na D-line)", "dhead": [["Weight fraction of water", "Liquid"], ["Temperature, K", null], ["Pressure, kPa", null], ["Refractive index (Na D-line)", "Liquid"]], "data": [[["0"], ["288.15"], ["100"], ["1.4818", "0.003"]], [["0"], ["293.15"], ["100"], ["1.4802", "0.003"]], [["0"], ["298.15"], ["100"], ["1.4784", "0.003"]], [["0"], ["303.15"], ["100"], ["1.4769", "0.003"]], [["0"], ["308.15"], ["100"], ["1.4754", "0.003"]], [["0"], ["313.15"], ["100"], ["1.4742", "0.003"]], [["0"], ["318.15"], ["100"], ["1.4728", "0.003"]], [["0.00485"], ["288.15"], ["100"], ["1.48", "0.003"]], [["0.00485"], ["293.15"], ["100"], ["1.4785", "0.003"]], [["0.00485"], ["298.15"], ["100"], ["1.477", "0.003"]], [["0.00485"], ["303.15"], ["100"], ["1.4756", "0.003"]], [["0.00485"], ["308.15"], ["100"], ["1.4741", "0.003"]], [["0.00485"], ["313.15"], ["100"], ["1.4729", "0.003"]], [["0.00485"], ["318.15"], ["100"], ["1.4715", "0.003"]], [["0.00798"], ["288.15"], ["100"], ["1.4789", "0.003"]], [["0.00798"], ["293.15"], ["100"], ["1.4775", "0.003"]], [["0.00798"], ["298.15"], ["100"], ["1.4761", "0.003"]], [["0.00798"], ["303.15"], ["100"], ["1.4748", "0.003"]], [["0.00798"], ["308.15"], ["100"], ["1.4733", "0.003"]], [["0.00798"], ["313.15"], ["100"], ["1.4721", "0.003"]], [["0.00798"], ["318.15"], ["100"], ["1.4707", "0.003"]], [["0.01088"], ["288.15"], ["100"], ["1.4778", "0.003"]], [["0.01088"], ["293.15"], ["100"], ["1.4765", "0.003"]], [["0.01088"], ["298.15"], ["100"], ["1.4753", "0.003"]], [["0.01088"], ["303.15"], ["100"], ["1.474", "0.003"]], [["0.01088"], ["308.15"], ["100"], ["1.4725", "0.003"]], [["0.01088"], ["313.15"], ["100"], ["1.4713", "0.003"]], [["0.01088"], ["318.15"], ["100"], ["1.4699", "0.003"]], [["0.01421"], ["288.15"], ["100"], ["1.4766", "0.003"]], [["0.01421"], ["293.15"], ["100"], ["1.4754", "0.003"]], [["0.01421"], ["298.15"], ["100"], ["1.4743", "0.003"]], [["0.01421"], ["303.15"], ["100"], ["1.4731", "0.003"]], [["0.01421"], ["308.15"], ["100"], ["1.4716", "0.003"]], [["0.01421"], ["313.15"], ["100"], ["1.4704", "0.003"]], [["0.01421"], ["318.15"], ["100"], ["1.469", "0.003"]], [["0.01708"], ["288.15"], ["100"], ["1.4755", "0.003"]], [["0.01708"], ["293.15"], ["100"], ["1.4744", "0.003"]], [["0.01708"], ["298.15"], ["100"], ["1.4735", "0.003"]], [["0.01708"], ["303.15"], ["100"], ["1.4723", "0.003"]], [["0.01708"], ["308.15"], ["100"], ["1.4708", "0.003"]], [["0.01708"], ["313.15"], ["100"], ["1.4696", "0.003"]], [["0.01708"], ["318.15"], ["100"], ["1.4682", "0.003"]]], "solvent": null, "footer": "", "expmeth": "Standard Abbe refractometry"}