{"constr": [], "ref": {"full": "Li, S.; Li, S.; Zhai, Q.; Jiang, Y.; Hu, M. (2019) J. Mol. Liq. 273, 455-462.", "title": "Solid - liquid and liquid - liquid equilibrium of the systems composed of [Cnmim]Cl/Br (n = 2, 4, 6, 8) + Rb2SO4/Cs2SO4 + H2O"}, "phases": ["Liquid"], "components": [{"sample": [["Source:", "commercial source"], ["Purification:", "stated by supplier"], ["Purity:", "99 mass %"], ["Purity analysis:", "dried by vacuum heating"]], "name": "1-hexyl-3-methylimidazolium chloride", "formula": "C<SUB>10</SUB>H<SUB>19</SUB>ClN<SUB>2</SUB>", "mw": "202.73", "idout": "AAmzKp"}, {"sample": [["Source:", "commercial source"], ["Purification:", "stated by supplier"], ["Purity:", "99.5 mass %"], ["Purity analysis:", "dried by vacuum heating"]], "idout": "AAzRcq", "mw": "266.99", "formula": "O<SUB>4</SUB>Rb<SUB>2</SUB>S", "name": "rubidium sulfate"}, {"sample": [["Source:", "commercial source"], ["Purification:", "estimated by the compiler"], ["Purity:", "99.9 mol %(fractional distillation)"]], "name": "water", "formula": "H<SUB>2</SUB>O", "mw": "18.02", "idout": "AADYJk"}], "title": "Refraction, surface tension, and speed of sound: Refractive index (Na D-line)", "dhead": [["Temperature, K", null], ["Weight fraction of 1-hexyl-3-methylimidazolium chloride", "Liquid"], ["Weight fraction of rubidium sulfate", "Liquid"], ["Pressure, kPa", null], ["Refractive index (Na D-line)", "Liquid"]], "data": [[["298.2"], ["0"], ["0.337"], ["100"], ["1.36524", "0.0013"]], [["298.2"], ["0.0632"], ["0.256"], ["100"], ["1.36891", "0.0016"]], [["298.2"], ["0.1362"], ["0.199"], ["100"], ["1.37659", "0.0015"]], [["298.2"], ["0.2186"], ["0.143"], ["100"], ["1.38597", "0.0014"]], [["298.2"], ["0.3071"], ["0.097"], ["100"], ["1.39677", "0.0018"]], [["298.2"], ["0.4023"], ["0.054"], ["100"], ["1.40914", "0.0016"]], [["298.2"], ["0.4976"], ["0.025"], ["100"], ["1.42282", "0.0016"]], [["298.2"], ["0.5895"], ["0.0096"], ["100"], ["1.43729", "0.0019"]], [["298.2"], ["0.6764"], ["0.0057"], ["100"], ["1.4534", "0.013"]], [["298.2"], ["0.7639"], ["0.0019"], ["100"], ["1.46998", "0.0014"]], [["298.2"], ["0.8496"], ["0.0009"], ["100"], ["1.48699", "0.0013"]], [["308.2"], ["0"], ["0.359"], ["100"], ["1.36619", "0.0013"]], [["308.2"], ["0.0606"], ["0.287"], ["100"], ["1.36963", "0.0013"]], [["308.2"], ["0.1322"], ["0.223"], ["100"], ["1.37746", "0.0014"]], [["308.2"], ["0.2136"], ["0.163"], ["100"], ["1.38679", "0.0016"]], [["308.2"], ["0.304"], ["0.106"], ["100"], ["1.39754", "0.0016"]], [["308.2"], ["0.3979"], ["0.064"], ["100"], ["1.41021", "0.0013"]], [["308.2"], ["0.4952"], ["0.029"], ["100"], ["1.42212", "0.0023"]], [["308.2"], ["0.5865"], ["0.015"], ["100"], ["1.4365", "0.002"]], [["308.2"], ["0.678"], ["0.0035"], ["100"], ["1.45252", "0.0013"]], [["308.2"], ["0.7639"], ["0.0019"], ["100"], ["1.46885", "0.002"]], [["308.2"], ["0.8495"], ["0.001"], ["100"], ["1.48569", "0.0013"]]], "solvent": null, "footer": "", "expmeth": "Standard Abbe refractometry"}