{"ref": {"title": "Tetrabutylammonium Chloride Based Ionic Liquid Analogues and Their Physical Properties", "full": "Mjalli, F. S.; Naser, J.; Jibril, B.; Alizadeh, V.; Gano, Z. (2014) J. Chem. Eng. Data 59(7), 2242-2251."}, "constr": [], "phases": ["Liquid"], "dhead": [["Temperature, K", null], ["Mole fraction of tetrabutylammonium chloride", "Liquid"], ["Pressure, kPa", null], ["Refractive index (Na D-line)", "Liquid"]], "components": [{"name": "1,2-ethanediol", "formula": "C<SUB>2</SUB>H<SUB>6</SUB>O<SUB>2</SUB>", "idout": "AALwIY", "mw": "62.07", "sample": [["Source:", "commercial source"], ["Initial purification:", "stated by supplier"], ["Initial purity:", "98 mass %"], ["Final purification:", "Karl Fischer titration"], ["Final purity:", "0.002 water mass %(dried by vacuum heating)"]]}, {"idout": "ABBXWo", "mw": "277.92", "name": "tetrabutylammonium chloride", "formula": "C<SUB>16</SUB>H<SUB>36</SUB>ClN", "sample": [["Source:", "commercial source"], ["Initial purification:", "stated by supplier"], ["Initial purity:", "98 mass %"], ["Final purification:", "Karl Fischer titration"], ["Final purity:", "0.002 water mass %(dried by vacuum heating)"]]}], "title": "Refraction, surface tension, and speed of sound: Refractive index (Na D-line)", "expmeth": "Standard Abbe refractometry", "data": [[["293.15"], ["0.2"], ["101"], ["1.4615", "0.0021"]], [["293.15"], ["0.25"], ["101"], ["1.4653", "0.0021"]], [["293.15"], ["0.333"], ["101"], ["1.4703", "0.0021"]], [["303.15"], ["0.2"], ["101"], ["1.4585", "0.0021"]], [["303.15"], ["0.25"], ["101"], ["1.4619", "0.0021"]], [["303.15"], ["0.333"], ["101"], ["1.4672", "0.0021"]], [["313.15"], ["0.2"], ["101"], ["1.4554", "0.0021"]], [["313.15"], ["0.25"], ["101"], ["1.4587", "0.0021"]], [["313.15"], ["0.333"], ["101"], ["1.4641", "0.0021"]], [["323.15"], ["0.2"], ["101"], ["1.4523", "0.0021"]], [["323.15"], ["0.25"], ["101"], ["1.4556", "0.0021"]], [["323.15"], ["0.333"], ["101"], ["1.4609", "0.0021"]], [["333.15"], ["0.2"], ["101"], ["1.4491", "0.0021"]], [["333.15"], ["0.25"], ["101"], ["1.4525", "0.0021"]], [["333.15"], ["0.333"], ["101"], ["1.4578", "0.0021"]], [["343.15"], ["0.2"], ["101"], ["1.445", "0.002"]], [["343.15"], ["0.25"], ["101"], ["1.4495", "0.0021"]], [["343.15"], ["0.333"], ["101"], ["1.4545", "0.0021"]], [["353.15"], ["0.2"], ["101"], ["1.4427", "0.0021"]], [["353.15"], ["0.25"], ["101"], ["1.4469", "0.0021"]], [["353.15"], ["0.333"], ["101"], ["1.4509", "0.0021"]]], "solvent": null, "footer": ""}