{"components": [{"sample": [["Source:", "commercial source"], ["Initial purification:", "stated by supplier"], ["Initial purity:", "98 mass %"], ["Final purification:", "Karl Fischer titration;titration"], ["Final purity:", "0.01 halide impurity mol %(de-gassed by evacuation)"]], "formula": "C<SUB>12</SUB>H<SUB>23</SUB>BF<SUB>4</SUB>N<SUB>2</SUB>", "name": "1-methyl-3-octylimidazolium tetrafluoroborate", "mw": "282.13", "idout": "ABCNhW"}], "title": "Refraction, surface tension, and speed of sound: Refractive index (Na D-line)", "dhead": [["Temperature, K", null], ["Pressure, kPa", null], ["Refractive index (Na D-line)", "Liquid"]], "data": [[["288.15"], ["101.325"], ["1.4357", "0.0005"]], [["293.15"], ["101.325"], ["1.4335", "0.0005"]], [["298.15"], ["101.325"], ["1.4319", "0.0005"]], [["303.15"], ["101.325"], ["1.4302", "0.0005"]], [["308.15"], ["101.325"], ["1.4288", "0.0005"]], [["313.15"], ["101.325"], ["1.4277", "0.0005"]], [["318.15"], ["101.325"], ["1.4266", "0.0005"]], [["323.15"], ["101.325"], ["1.4255", "0.0005"]], [["328.15"], ["101.325"], ["1.4245", "0.0005"]], [["333.15"], ["101.325"], ["1.4234", "0.0005"]], [["338.15"], ["101.325"], ["1.4224", "0.0005"]], [["343.15"], ["101.325"], ["1.4213", "0.0005"]]], "solvent": null, "footer": "", "expmeth": "Standard Abbe refractometry", "ref": {"title": "Estimates of Internal Pressure and Molar Refraction of Imidazolium Based Ionic Liquids as a Function of Temperature", "full": "Kumar, A. (2008) J. Solution Chem. 37, 203-214."}, "constr": [], "phases": ["Liquid"]}