{"ref": {"title": "Thermodynamic study of binary mixtures of toluene with ionic liquids, 1-butyl-1-methylpyrrolidinium bis(trifluoromethylsulfonyl)imide, 1-hexyl-1-methylpyrrolidinium bis(trifluoromethylsulfonyl)imide and 1-butylpyridinium bis(trifluoromethylsulfonyl)imide", "full": "Warmiska, D.; Cichowska-Kopczyska, I. (2020) J. Mol. Liq. 304, 112754."}, "constr": [], "phases": ["Liquid"], "components": [{"sample": [["Source:", "commercial source"], ["Purification:", "stated by supplier"], ["Purity:", "99 mol %"]], "name": "toluene", "formula": "C<SUB>7</SUB>H<SUB>8</SUB>", "mw": "92.14", "idout": "AARlpN"}, {"mw": "450.46", "idout": "ABigFi", "name": "1-hexyl-1-methylpyrrolidinium bis(trifluoromethanesulfonyl)imide", "formula": "C<SUB>13</SUB>H<SUB>24</SUB>F<SUB>6</SUB>N<SUB>2</SUB>O<SUB>4</SUB>S<SUB>2</SUB>", "sample": [["Source:", "commercial source"], ["Purification:", "stated by supplier"], ["Purity:", "99 mass %"], ["Purity analysis:", "dried by vacuum heating"]]}], "title": "Refraction, surface tension, and speed of sound: Refractive index (Na D-line)", "dhead": [["Temperature, K", null], ["Mole fraction of toluene", "Liquid"], ["Pressure, kPa", null], ["Refractive index (Na D-line)", "Liquid"]], "data": [[["293.15"], ["0"], ["100"], ["1.4267", "0.0005"]], [["293.15"], ["0.0942"], ["100"], ["1.429", "0.0005"]], [["293.15"], ["0.1943"], ["100"], ["1.4319", "0.0005"]], [["293.15"], ["0.29"], ["100"], ["1.4353", "0.0005"]], [["293.15"], ["0.3938"], ["100"], ["1.4397", "0.0005"]], [["293.15"], ["0.493"], ["100"], ["1.4447", "0.0005"]], [["293.15"], ["0.5961"], ["100"], ["1.4509", "0.0005"]], [["293.15"], ["0.6986"], ["100"], ["1.4583", "0.0005"]], [["293.15"], ["0.7993"], ["100"], ["1.4674", "0.0005"]], [["293.15"], ["1"], ["100"], ["1.4962", "0.0005"]], [["298.15"], ["0"], ["100"], ["1.4258", "0.0005"]], [["298.15"], ["0.0942"], ["100"], ["1.428", "0.0005"]], [["298.15"], ["0.1943"], ["100"], ["1.4308", "0.0005"]], [["298.15"], ["0.29"], ["100"], ["1.434", "0.0005"]], [["298.15"], ["0.3938"], ["100"], ["1.4383", "0.0005"]], [["298.15"], ["0.493"], ["100"], ["1.4432", "0.0005"]], [["298.15"], ["0.5961"], ["100"], ["1.4492", "0.0005"]], [["298.15"], ["0.6986"], ["100"], ["1.4565", "0.0005"]], [["298.15"], ["0.7993"], ["100"], ["1.4655", "0.0005"]], [["298.15"], ["1"], ["100"], ["1.4934", "0.0005"]], [["303.15"], ["0"], ["100"], ["1.4243", "0.0005"]], [["303.15"], ["0.0942"], ["100"], ["1.4266", "0.0005"]], [["303.15"], ["0.1943"], ["100"], ["1.4295", "0.0005"]], [["303.15"], ["0.29"], ["100"], ["1.4327", "0.0005"]], [["303.15"], ["0.3938"], ["100"], ["1.437", "0.0005"]], [["303.15"], ["0.493"], ["100"], ["1.4418", "0.0005"]], [["303.15"], ["0.5961"], ["100"], ["1.4477", "0.0005"]], [["303.15"], ["0.6986"], ["100"], ["1.4549", "0.0005"]], [["303.15"], ["0.7993"], ["100"], ["1.4637", "0.0005"]], [["303.15"], ["1"], ["100"], ["1.4907", "0.0005"]], [["308.15"], ["0"], ["100"], ["1.423", "0.0005"]], [["308.15"], ["0.0942"], ["100"], ["1.4251", "0.0005"]], [["308.15"], ["0.1943"], ["100"], ["1.4279", "0.0005"]], [["308.15"], ["0.29"], ["100"], ["1.4301", "0.0005"]], [["308.15"], ["0.3938"], ["100"], ["1.4351", "0.0005"]], [["308.15"], ["0.493"], ["100"], ["1.4398", "0.0005"]], [["308.15"], ["0.5961"], ["100"], ["1.4458", "0.0005"]], [["308.15"], ["0.6986"], ["100"], ["1.4529", "0.0005"]], [["308.15"], ["0.7993"], ["100"], ["1.4616", "0.0005"]], [["308.15"], ["1"], ["100"], ["1.4878", "0.0005"]], [["313.15"], ["0"], ["100"], ["1.4216", "0.0005"]], [["313.15"], ["0.0942"], ["100"], ["1.4238", "0.0005"]], [["313.15"], ["0.1943"], ["100"], ["1.4266", "0.0005"]], [["313.15"], ["0.29"], ["100"], ["1.4297", "0.0005"]], [["313.15"], ["0.3938"], ["100"], ["1.4337", "0.0005"]], [["313.15"], ["0.493"], ["100"], ["1.4383", "0.0005"]], [["313.15"], ["0.5961"], ["100"], ["1.4442", "0.0005"]], [["313.15"], ["0.6986"], ["100"], ["1.4511", "0.0005"]], [["313.15"], ["0.7993"], ["100"], ["1.4596", "0.0005"]], [["313.15"], ["1"], ["100"], ["1.4851", "0.0005"]]], "solvent": null, "footer": "", "expmeth": "Standard Abbe refractometry"}