{"ref": {"title": "Physicochemical Properties for the Binary Systems of Ionic Liquids [Cnmim]Cl + N,N-Dimethylformamide", "full": "Yan, X.-J.; Li, S.-N.; Zhai, Q.-G.; Jiang, Y.-C.; Hu, M.-C. (2014) J. Chem. Eng. Data 59(5), 1411-1422."}, "constr": [], "phases": ["Liquid"], "title": "Refraction, surface tension, and speed of sound: Refractive index (Na D-line)", "components": [{"sample": [["Source:", "commercial source"], ["Initial purification:", "stated by supplier"], ["Initial purity:", "99.5 mass %"], ["Final purification:", "Karl Fischer titration"], ["Final purity:", "0.05 water mass %(molecular sieve treatment)"]], "mw": "73.09", "idout": "AAOCWD", "name": "dimethylformamide", "formula": "C<SUB>3</SUB>H<SUB>7</SUB>NO"}, {"sample": [["Source:", "commercial source"], ["Initial purification:", "stated by supplier"], ["Initial purity:", "99 mass %"], ["Final purification:", "Karl Fischer titration"], ["Final purity:", "0.1 water mass %(dried by vacuum heating)"]], "name": "1-hexyl-3-methylimidazolium chloride", "formula": "C<SUB>10</SUB>H<SUB>19</SUB>ClN<SUB>2</SUB>", "idout": "AAmzKp", "mw": "202.73"}], "dhead": [["Temperature, K", null], ["Mole fraction of 1-hexyl-3-methylimidazolium chloride", "Liquid"], ["Pressure, kPa", null], ["Refractive index (Na D-line)", "Liquid"]], "footer": "", "data": [[["288.15"], ["0"], ["101"], ["1.43304", "0.0012"]], [["288.15"], ["0.0312"], ["101"], ["1.44088", "0.0012"]], [["288.15"], ["0.0646"], ["101"], ["1.44818", "0.0012"]], [["288.15"], ["0.102"], ["101"], ["1.45488", "0.0012"]], [["288.15"], ["0.1456"], ["101"], ["1.46175", "0.0013"]], [["288.15"], ["0.196"], ["101"], ["1.46836", "0.0013"]], [["288.15"], ["0.2502"], ["101"], ["1.47473", "0.0013"]], [["288.15"], ["0.3144"], ["101"], ["1.4808", "0.0013"]], [["288.15"], ["0.3893"], ["101"], ["1.48693", "0.0013"]], [["288.15"], ["0.4796"], ["101"], ["1.49278", "0.0013"]], [["288.15"], ["0.591"], ["101"], ["1.49886", "0.0013"]], [["288.15"], ["0.7249"], ["101"], ["1.50429", "0.0013"]], [["288.15"], ["1"], ["101"], ["1.5125", "0.0013"]], [["298.15"], ["0"], ["101"], ["1.42858", "0.0012"]], [["298.15"], ["0.0312"], ["101"], ["1.43634", "0.0012"]], [["298.15"], ["0.0646"], ["101"], ["1.44359", "0.0012"]], [["298.15"], ["0.102"], ["101"], ["1.45059", "0.0012"]], [["298.15"], ["0.1456"], ["101"], ["1.45751", "0.0013"]], [["298.15"], ["0.196"], ["101"], ["1.46433", "0.0013"]], [["298.15"], ["0.2502"], ["101"], ["1.47086", "0.0013"]], [["298.15"], ["0.3144"], ["101"], ["1.47702", "0.0013"]], [["298.15"], ["0.3893"], ["101"], ["1.48213", "0.0013"]], [["298.15"], ["0.4796"], ["101"], ["1.48933", "0.0013"]], [["298.15"], ["0.591"], ["101"], ["1.49567", "0.0013"]], [["298.15"], ["0.7249"], ["101"], ["1.50108", "0.0013"]], [["298.15"], ["1"], ["101"], ["1.50953", "0.0013"]], [["308.15"], ["0"], ["101"], ["1.42381", "0.0012"]], [["308.15"], ["0.0312"], ["101"], ["1.43187", "0.0012"]], [["308.15"], ["0.0646"], ["101"], ["1.43909", "0.0012"]], [["308.15"], ["0.102"], ["101"], ["1.44632", "0.0013"]], [["308.15"], ["0.1456"], ["101"], ["1.4533", "0.0013"]], [["308.15"], ["0.196"], ["101"], ["1.46038", "0.0013"]], [["308.15"], ["0.2502"], ["101"], ["1.46695", "0.0013"]], [["308.15"], ["0.3144"], ["101"], ["1.47335", "0.0013"]], [["308.15"], ["0.3893"], ["101"], ["1.47856", "0.0013"]], [["308.15"], ["0.4796"], ["101"], ["1.48595", "0.0013"]], [["308.15"], ["0.591"], ["101"], ["1.49237", "0.0013"]], [["308.15"], ["0.7249"], ["101"], ["1.49797", "0.0013"]], [["308.15"], ["1"], ["101"], ["1.50667", "0.0013"]], [["318.15"], ["0"], ["101"], ["1.41909", "0.0012"]], [["318.15"], ["0.0312"], ["101"], ["1.42765", "0.0012"]], [["318.15"], ["0.0646"], ["101"], ["1.43468", "0.0012"]], [["318.15"], ["0.102"], ["101"], ["1.44219", "0.0013"]], [["318.15"], ["0.1456"], ["101"], ["1.44909", "0.0013"]], [["318.15"], ["0.196"], ["101"], ["1.45652", "0.0013"]], [["318.15"], ["0.2502"], ["101"], ["1.46293", "0.0013"]], [["318.15"], ["0.3144"], ["101"], ["1.46974", "0.0013"]], [["318.15"], ["0.3893"], ["101"], ["1.47497", "0.0013"]], [["318.15"], ["0.4796"], ["101"], ["1.48264", "0.0013"]], [["318.15"], ["0.591"], ["101"], ["1.48916", "0.0013"]], [["318.15"], ["0.7249"], ["101"], ["1.49498", "0.0013"]], [["318.15"], ["1"], ["101"], ["1.5039", "0.0013"]]], "solvent": null, "expmeth": "Standard Abbe refractometry"}