{"constr": [], "ref": {"full": "Liu, Q.; Zhao, L.; Ma, L.; Chu, J.; Wang, J.; Zang, Y. (2020) J. Chem. Eng. Data 65(10), 4780-4789.", "title": "Hydroxyethyl Group Effect on Properties of Bis[(trifluoromethyl)sulfonyl]imide-Type Ionic Liquids"}, "phases": ["Liquid"], "dhead": [["Temperature, K", null], ["Pressure, kPa", null], ["Refractive index (Na D-line)", "Liquid"]], "components": [{"mw": "407.30", "idout": "ABaReg", "formula": "C<SUB>8</SUB>H<SUB>11</SUB>F<SUB>6</SUB>N<SUB>3</SUB>O<SUB>5</SUB>S<SUB>2</SUB>", "name": "1-(2-hydroxyethyl)-3-methylimidazolium bis[(trifluoromethyl)sulfonyl]imide", "sample": [["Source:", "synthesized by the authors"], ["Purification:", "NMR (proton)"], ["Purity:", "99 mass %"]]}], "title": "Refraction, surface tension, and speed of sound: Refractive index (Na D-line)", "expmeth": "Standard Abbe refractometry", "data": [[["288.15"], ["101.3"], ["1.4365", "0.0011"]], [["293.15"], ["101.3"], ["1.4346", "0.0011"]], [["298.15"], ["101.3"], ["1.4333", "0.0011"]], [["303.15"], ["101.3"], ["1.4318", "0.0011"]], [["308.15"], ["101.3"], ["1.4305", "0.0011"]], [["313.15"], ["101.3"], ["1.4292", "0.0011"]], [["318.15"], ["101.3"], ["1.4276", "0.0011"]], [["323.15"], ["101.3"], ["1.4261", "0.0011"]], [["328.15"], ["101.3"], ["1.4248", "0.0011"]], [["333.15"], ["101.3"], ["1.4235", "0.0011"]], [["338.15"], ["101.3"], ["1.4222", "0.0011"]], [["343.15"], ["101.3"], ["1.4207", "0.0011"]], [["348.15"], ["101.3"], ["1.4192", "0.0011"]]], "solvent": null, "footer": ""}