{"title": "Refraction, surface tension, and speed of sound: Refractive index (Na D-line)", "components": [{"name": "N-vinylpyrrolidone", "formula": "C<SUB>6</SUB>H<SUB>9</SUB>NO", "idout": "AAVTDi", "mw": "111.14", "sample": [["Source:", "commercial source"], ["Purification:", "stated by supplier"], ["Purity:", "97 mass %"], ["Purity analysis:", "fractional distillation"]]}, {"formula": "C<SUB>8</SUB>H<SUB>15</SUB>BF<SUB>4</SUB>N<SUB>2</SUB>", "name": "1-butyl-3-methylimidazolium tetrafluoroborate", "mw": "226.03", "idout": "AArYBF", "sample": [["Source:", "commercial source"], ["Purification:", "stated by supplier"], ["Purity:", "99 mass %"]]}], "dhead": [["Temperature, K", null], ["Mole fraction of 1-butyl-3-methylimidazolium tetrafluoroborate", "Liquid"], ["Pressure, kPa", null], ["Refractive index (Na D-line)", "Liquid"]], "footer": "", "data": [[["298.15"], ["0"], ["100"], ["1.51119", "0.001"]], [["298.15"], ["0.1046"], ["100"], ["1.4987", "0.001"]], [["298.15"], ["0.2035"], ["100"], ["1.48698", "0.00099"]], [["298.15"], ["0.3042"], ["100"], ["1.47636", "0.00097"]], [["298.15"], ["0.406"], ["100"], ["1.46672", "0.00095"]], [["298.15"], ["0.4945"], ["100"], ["1.45868", "0.00094"]], [["298.15"], ["0.607"], ["100"], ["1.44913", "0.00092"]], [["298.15"], ["0.697"], ["100"], ["1.44241", "0.00091"]], [["298.15"], ["0.7828"], ["100"], ["1.43341", "0.0009"]], [["298.15"], ["0.9104"], ["100"], ["1.42725", "0.00088"]], [["298.15"], ["1"], ["100"], ["1.42058", "0.00087"]], [["303.15"], ["0"], ["100"], ["1.50886", "0.001"]], [["303.15"], ["0.1046"], ["100"], ["1.49659", "0.001"]], [["303.15"], ["0.2035"], ["100"], ["1.48494", "0.00099"]], [["303.15"], ["0.3042"], ["100"], ["1.4745", "0.00097"]], [["303.15"], ["0.406"], ["100"], ["1.4648", "0.00095"]], [["303.15"], ["0.4945"], ["100"], ["1.45699", "0.00094"]], [["303.15"], ["0.607"], ["100"], ["1.44651", "0.00092"]], [["303.15"], ["0.697"], ["100"], ["1.44097", "0.00091"]], [["303.15"], ["0.7828"], ["100"], ["1.43197", "0.0009"]], [["303.15"], ["0.9104"], ["100"], ["1.42592", "0.00088"]], [["303.15"], ["1"], ["100"], ["1.41913", "0.00087"]], [["308.15"], ["0"], ["100"], ["1.5065", "0.001"]], [["308.15"], ["0.1046"], ["100"], ["1.49444", "0.001"]], [["308.15"], ["0.2035"], ["100"], ["1.48295", "0.00099"]], [["308.15"], ["0.3042"], ["100"], ["1.47251", "0.00097"]], [["308.15"], ["0.406"], ["100"], ["1.46308", "0.00095"]], [["308.15"], ["0.4945"], ["100"], ["1.45534", "0.00094"]], [["308.15"], ["0.607"], ["100"], ["1.44502", "0.00092"]], [["308.15"], ["0.697"], ["100"], ["1.43944", "0.00091"]], [["308.15"], ["0.7828"], ["100"], ["1.43065", "0.0009"]], [["308.15"], ["0.9104"], ["100"], ["1.42459", "0.00088"]], [["308.15"], ["1"], ["100"], ["1.41764", "0.00087"]], [["313.15"], ["0"], ["100"], ["1.50415", "0.001"]], [["313.15"], ["0.1046"], ["100"], ["1.49224", "0.001"]], [["313.15"], ["0.2035"], ["100"], ["1.48108", "0.00099"]], [["313.15"], ["0.3042"], ["100"], ["1.47065", "0.00097"]], [["313.15"], ["0.406"], ["100"], ["1.46137", "0.00095"]], [["313.15"], ["0.4945"], ["100"], ["1.45369", "0.00094"]], [["313.15"], ["0.607"], ["100"], ["1.44349", "0.00092"]], [["313.15"], ["0.697"], ["100"], ["1.43784", "0.00091"]], [["313.15"], ["0.7828"], ["100"], ["1.42937", "0.0009"]], [["313.15"], ["0.9104"], ["100"], ["1.42327", "0.00088"]], [["313.15"], ["1"], ["100"], ["1.41621", "0.00087"]], [["318.15"], ["0"], ["100"], ["1.50181", "0.001"]], [["318.15"], ["0.1046"], ["100"], ["1.49001", "0.001"]], [["318.15"], ["0.2035"], ["100"], ["1.47899", "0.00099"]], [["318.15"], ["0.3042"], ["100"], ["1.46886", "0.00097"]], [["318.15"], ["0.406"], ["100"], ["1.45957", "0.00095"]], [["318.15"], ["0.4945"], ["100"], ["1.45198", "0.00094"]], [["318.15"], ["0.607"], ["100"], ["1.44199", "0.00092"]], [["318.15"], ["0.697"], ["100"], ["1.43632", "0.00091"]], [["318.15"], ["0.7828"], ["100"], ["1.42834", "0.0009"]], [["318.15"], ["0.9104"], ["100"], ["1.42194", "0.00088"]], [["318.15"], ["1"], ["100"], ["1.41472", "0.00087"]], [["323.15"], ["0"], ["100"], ["1.49948", "0.001"]], [["323.15"], ["0.1046"], ["100"], ["1.4878", "0.001"]], [["323.15"], ["0.2035"], ["100"], ["1.47691", "0.00099"]], [["323.15"], ["0.3042"], ["100"], ["1.46692", "0.00097"]], [["323.15"], ["0.406"], ["100"], ["1.45773", "0.00095"]], [["323.15"], ["0.4945"], ["100"], ["1.45015", "0.00094"]], [["323.15"], ["0.607"], ["100"], ["1.44042", "0.00092"]], [["323.15"], ["0.697"], ["100"], ["1.43462", "0.00091"]], [["323.15"], ["0.7828"], ["100"], ["1.42708", "0.0009"]], [["323.15"], ["0.9104"], ["100"], ["1.42061", "0.00088"]], [["323.15"], ["1"], ["100"], ["1.4133", "0.00087"]]], "solvent": null, "expmeth": "Standard Abbe refractometry", "ref": {"full": "Sunkara, G. R.; Tadavarthi, M. M.; Tadekoru, V. K.; Tadikonda, S. K.; Bezawada, S. R. (2015) J. Chem. Eng. Data 60(3), 886-894.", "title": "Density, Refractive Index, and Speed of Sound of the Binary Mixture of 1-Butyl-3-methylimidazolium Tetrafluoroborate + N-Vinyl-2-pyrrolidinone from T = (298.15 to 323.15) K at Atmospheric Pressure"}, "constr": [], "phases": ["Liquid"]}