{"title": "Refraction, surface tension, and speed of sound: Refractive index (Na D-line)", "components": [{"name": "2-(2-methoxyethoxy)ethanol", "formula": "C<SUB>5</SUB>H<SUB>12</SUB>O<SUB>3</SUB>", "idout": "AAXFpT", "mw": "120.15", "sample": [["Source:", "commercial source"], ["Purification:", "stated by supplier"], ["Purity:", "98 mol %"], ["Purity analysis:", "dried by vacuum heating;molecular sieve treatment"]]}, {"name": "1-butyl-3-methylimidazolium hexafluorophosphate", "formula": "C<SUB>8</SUB>H<SUB>15</SUB>F<SUB>6</SUB>N<SUB>2</SUB>P", "idout": "ABChJv", "mw": "284.19", "sample": [["Source:", "commercial source"], ["Purification:", "stated by supplier"], ["Purity:", "98 mol %"], ["Purity analysis:", "chemical reagent treatment;de-gassed by freezing and melting in vacuum;dried by vacuum heating;solvent extraction"]]}], "dhead": [["Mole fraction of 1-butyl-3-methylimidazolium hexafluorophosphate", "Liquid"], ["Pressure, kPa", null], ["Temperature, K", null], ["Refractive index (Na D-line)", "Liquid"]], "footer": "", "data": [[["0"], ["101"], ["298.15"], ["1.4242", "0.0005"]], [["0.0094"], ["101"], ["298.15"], ["1.4244", "0.0005"]], [["0.0158"], ["101"], ["298.15"], ["1.4243", "0.0005"]], [["0.0402"], ["101"], ["298.15"], ["1.4246", "0.0005"]], [["0.0692"], ["101"], ["298.15"], ["1.4245", "0.0005"]], [["0.1474"], ["101"], ["298.15"], ["1.4238", "0.0005"]], [["0.2424"], ["101"], ["298.15"], ["1.422", "0.0005"]], [["0.32"], ["101"], ["298.15"], ["1.4205", "0.0005"]], [["0.4201"], ["101"], ["298.15"], ["1.4185", "0.0005"]], [["0.4944"], ["101"], ["298.15"], ["1.417", "0.0005"]], [["0.5845"], ["101"], ["298.15"], ["1.4152", "0.0005"]], [["0.7211"], ["101"], ["298.15"], ["1.4127", "0.0005"]], [["0.8453"], ["101"], ["298.15"], ["1.4109", "0.0005"]], [["0.9051"], ["101"], ["298.15"], ["1.41", "0.0005"]], [["1"], ["101"], ["298.15"], ["1.4089", "0.0005"]]], "solvent": null, "expmeth": "Digital Refractometer", "ref": {"full": "Singh, T.; Kumar, A. (2010) J. Mol. Liq. 153, 117-123.", "title": "Volumetric behaviour of 1-Butyl-3-Methyl imidazolium hexafluorophosphate with ethylene glycol derivatives: Application of Prigogine-Flory-Patterson theory"}, "constr": [], "phases": ["Liquid"]}