{"ref": {"full": "Zhang, X.; Cui, Z.; Yin, T.; Zheng, P.; Zhao, J. (2015) Fluid Phase Equilib. 394, 156-164.", "title": "Measurements of the liquid liquid phase equilibria of binary solutions of 1-methyl-3-octylimidazolium tetrafluoroborate with 1-heptanol or 2-pentanol"}, "constr": [], "phases": ["Liquid"], "components": [{"name": "heptan-1-ol", "formula": "C<SUB>7</SUB>H<SUB>16</SUB>O", "mw": "116.20", "idout": "AAWSDQ", "sample": [["Source:", "commercial source"], ["Purification:", "stated by supplier"], ["Purity:", "99 mass %"], ["Purity analysis:", "molecular sieve treatment"]]}, {"sample": [["Source:", "commercial source"], ["Initial purification:", "stated by supplier"], ["Initial purity:", "99 mass %"], ["Final purification:", "Karl Fischer titration"], ["Final purity:", "0.0158 water mass %(dried in a desiccator;dried by vacuum heating)"]], "idout": "ABCNhW", "mw": "282.13", "formula": "C<SUB>12</SUB>H<SUB>23</SUB>BF<SUB>4</SUB>N<SUB>2</SUB>", "name": "1-methyl-3-octylimidazolium tetrafluoroborate"}], "title": "Refraction, surface tension, and speed of sound: Refractive index", "dhead": [["Temperature, K", null], ["Mole fraction of 1-methyl-3-octylimidazolium tetrafluoroborate", "Liquid"], ["Pressure, kPa", null], ["Wavelength, A", "Liquid"], ["Refractive index", "Liquid"]], "data": [[["301.61"], ["0.7"], ["85"], ["632.8"], ["1.4285", "0.0003"]], [["302.366"], ["0.8"], ["85"], ["632.8"], ["1.429", "0.0003"]], [["302.37"], ["0.898"], ["85"], ["632.8"], ["1.4299", "0.0003"]], [["303.538"], ["0.7"], ["85"], ["632.8"], ["1.4279", "0.0003"]], [["303.938"], ["0.898"], ["85"], ["632.8"], ["1.4295", "0.0003"]], [["303.98"], ["0.8"], ["85"], ["632.8"], ["1.4286", "0.0003"]], [["305.362"], ["0.7"], ["85"], ["632.8"], ["1.4274", "0.0003"]], [["305.428"], ["0.898"], ["85"], ["632.8"], ["1.4291", "0.0003"]], [["305.584"], ["0.5"], ["85"], ["632.8"], ["1.4254", "0.0003"]], [["305.645"], ["0.8"], ["85"], ["632.8"], ["1.4282", "0.0003"]], [["306.755"], ["0.6"], ["85"], ["632.8"], ["1.4262", "0.0003"]], [["307.042"], ["0.7"], ["85"], ["632.8"], ["1.4269", "0.0003"]], [["307.101"], ["0.8"], ["85"], ["632.8"], ["1.4278", "0.0003"]], [["307.116"], ["0.898"], ["85"], ["632.8"], ["1.4286", "0.0003"]], [["307.215"], ["0.5"], ["85"], ["632.8"], ["1.4249", "0.0003"]], [["307.741"], ["0.2"], ["85"], ["632.8"], ["1.421", "0.0003"]], [["307.742"], ["0.3"], ["85"], ["632.8"], ["1.4225", "0.0003"]], [["307.996"], ["0.399"], ["85"], ["632.8"], ["1.4235", "0.0003"]], [["308.006"], ["0.1"], ["85"], ["632.8"], ["1.4195", "0.0003"]], [["308.503"], ["0.7"], ["85"], ["632.8"], ["1.4265", "0.0003"]], [["308.525"], ["0.6"], ["85"], ["632.8"], ["1.4256", "0.0003"]], [["308.602"], ["0.5"], ["85"], ["632.8"], ["1.4245", "0.0003"]], [["308.632"], ["0.8"], ["85"], ["632.8"], ["1.4274", "0.0003"]], [["309.132"], ["0.3"], ["85"], ["632.8"], ["1.422", "0.001"]], [["309.273"], ["0.898"], ["85"], ["632.8"], ["1.428", "0.0003"]], [["309.326"], ["0.2"], ["85"], ["632.8"], ["1.4204", "0.0003"]], [["309.521"], ["0.1"], ["85"], ["632.8"], ["1.4189", "0.0003"]], [["309.557"], ["0.399"], ["85"], ["632.8"], ["1.423", "0.001"]], [["310.16"], ["0.5"], ["85"], ["632.8"], ["1.424", "0.0003"]], [["310.339"], ["0.8"], ["85"], ["632.8"], ["1.4269", "0.0003"]], [["310.341"], ["0.7"], ["85"], ["632.8"], ["1.426", "0.0003"]], [["310.753"], ["0.3"], ["85"], ["632.8"], ["1.4214", "0.0003"]], [["310.81"], ["0.6"], ["85"], ["632.8"], ["1.4249", "0.0003"]], [["310.883"], ["0.2"], ["85"], ["632.8"], ["1.4199", "0.0003"]], [["311.042"], ["0.1"], ["85"], ["632.8"], ["1.4183", "0.0003"]], [["311.127"], ["0.399"], ["85"], ["632.8"], ["1.4225", "0.0003"]], [["311.279"], ["0.898"], ["85"], ["632.8"], ["1.4274", "0.0003"]], [["311.691"], ["0.5"], ["85"], ["632.8"], ["1.4235", "0.0003"]], [["312.289"], ["0.3"], ["85"], ["632.8"], ["1.4209", "0.0003"]], [["312.541"], ["0.2"], ["85"], ["632.8"], ["1.4193", "0.0003"]], [["312.578"], ["0.1"], ["85"], ["632.8"], ["1.4178", "0.0003"]], [["312.734"], ["0.6"], ["85"], ["632.8"], ["1.4243", "0.0003"]], [["313.026"], ["0.399"], ["85"], ["632.8"], ["1.4219", "0.0003"]], [["313.173"], ["0.5"], ["85"], ["632.8"], ["1.4231", "0.0003"]], [["313.856"], ["0.3"], ["85"], ["632.8"], ["1.4204", "0.0003"]], [["314.022"], ["0.2"], ["85"], ["632.8"], ["1.4188", "0.0003"]], [["314.061"], ["0.1"], ["85"], ["632.8"], ["1.4172", "0.0003"]], [["314.31"], ["0.399"], ["85"], ["632.8"], ["1.4214", "0.0003"]], [["314.637"], ["0.6"], ["85"], ["632.8"], ["1.4237", "0.0003"]], [["315.45"], ["0.3"], ["85"], ["632.8"], ["1.4198", "0.0003"]], [["315.628"], ["0.2"], ["85"], ["632.8"], ["1.4183", "0.0003"]], [["315.629"], ["0.1"], ["85"], ["632.8"], ["1.4166", "0.0003"]], [["316.319"], ["0.6"], ["85"], ["632.8"], ["1.4232", "0.0003"]], [["316.323"], ["0.399"], ["85"], ["632.8"], ["1.4208", "0.0003"]]], "solvent": null, "footer": "", "expmeth": "Minimum Deviation"}