{"title": "Refraction, surface tension, and speed of sound: Refractive index (Na D-line)", "components": [{"sample": [["Source:", "synthesized by the authors"], ["Purification:", "not known"], ["Purity:", "99.2 mass %(dried by vacuum heating)"]], "idout": "AAwscj", "mw": "254.08", "formula": "C<SUB>10</SUB>H<SUB>19</SUB>BF<SUB>4</SUB>N<SUB>2</SUB>", "name": "1-hexyl-3-methylimidazolium tetrafluoroborate"}, {"sample": [["Source:", "commercial source"], ["Initial purification:", "stated by supplier"], ["Initial purity:", "99.5 mass %"], ["Final purification:", "gas chromatography"], ["Final purity:", "99.8 mass %(fractional distillation)"]], "name": "aniline", "formula": "C<SUB>6</SUB>H<SUB>7</SUB>N", "mw": "93.13", "idout": "AARvIf"}], "dhead": [["Temperature, K", null], ["Mole fraction of 1-hexyl-3-methylimidazolium tetrafluoroborate", "Liquid"], ["Pressure, kPa", null], ["Refractive index (Na D-line)", "Liquid"]], "footer": "", "data": [[["293.15"], ["0"], ["101.3"], ["1.58547", "0.001"]], [["293.15"], ["0.0989"], ["101.3"], ["1.54858", "0.001"]], [["293.15"], ["0.1792"], ["101.3"], ["1.52524", "0.001"]], [["293.15"], ["0.2896"], ["101.3"], ["1.5029", "0.001"]], [["293.15"], ["0.3924"], ["101.3"], ["1.48888", "0.001"]], [["293.15"], ["0.5062"], ["101.3"], ["1.47605", "0.001"]], [["293.15"], ["0.6042"], ["101.3"], ["1.46653", "0.001"]], [["293.15"], ["0.6986"], ["101.3"], ["1.45781", "0.001"]], [["293.15"], ["0.7974"], ["101.3"], ["1.44845", "0.001"]], [["293.15"], ["0.8962"], ["101.3"], ["1.43908", "0.001"]], [["298.15"], ["0"], ["101.3"], ["1.5824", "0.001"]], [["298.15"], ["0.0989"], ["101.3"], ["1.54665", "0.001"]], [["298.15"], ["0.1792"], ["101.3"], ["1.52423", "0.001"]], [["298.15"], ["0.2896"], ["101.3"], ["1.50175", "0.001"]], [["298.15"], ["0.3924"], ["101.3"], ["1.48757", "0.001"]], [["298.15"], ["0.5062"], ["101.3"], ["1.47505", "0.001"]], [["298.15"], ["0.6042"], ["101.3"], ["1.46575", "0.001"]], [["298.15"], ["0.6986"], ["101.3"], ["1.4574", "0.001"]], [["298.15"], ["0.7974"], ["101.3"], ["1.44825", "0.001"]], [["298.15"], ["0.8962"], ["101.3"], ["1.43825", "0.001"]], [["303.15"], ["0"], ["101.3"], ["1.5796", "0.001"]], [["303.15"], ["0.0989"], ["101.3"], ["1.54529", "0.001"]], [["303.15"], ["0.1792"], ["101.3"], ["1.52322", "0.001"]], [["303.15"], ["0.2896"], ["101.3"], ["1.50085", "0.001"]], [["303.15"], ["0.3924"], ["101.3"], ["1.48696", "0.001"]], [["303.15"], ["0.5062"], ["101.3"], ["1.47455", "0.001"]], [["303.15"], ["0.6042"], ["101.3"], ["1.46522", "0.001"]], [["303.15"], ["0.6986"], ["101.3"], ["1.45709", "0.001"]], [["303.15"], ["0.7974"], ["101.3"], ["1.44813", "0.001"]], [["303.15"], ["0.8962"], ["101.3"], ["1.43787", "0.001"]], [["308.15"], ["0"], ["101.3"], ["1.57689", "0.001"]], [["308.15"], ["0.0989"], ["101.3"], ["1.54305", "0.001"]], [["308.15"], ["0.1792"], ["101.3"], ["1.52185", "0.001"]], [["308.15"], ["0.2896"], ["101.3"], ["1.50008", "0.001"]], [["308.15"], ["0.3924"], ["101.3"], ["1.48555", "0.001"]], [["308.15"], ["0.5062"], ["101.3"], ["1.47395", "0.001"]], [["308.15"], ["0.6042"], ["101.3"], ["1.46525", "0.001"]], [["308.15"], ["0.6986"], ["101.3"], ["1.45706", "0.001"]], [["308.15"], ["0.7974"], ["101.3"], ["1.4478", "0.001"]], [["308.15"], ["0.8962"], ["101.3"], ["1.4368", "0.001"]], [["313.15"], ["0"], ["101.3"], ["1.57423", "0.001"]], [["313.15"], ["0.0989"], ["101.3"], ["1.54162", "0.001"]], [["313.15"], ["0.1792"], ["101.3"], ["1.52065", "0.001"]], [["313.15"], ["0.2896"], ["101.3"], ["1.49991", "0.001"]], [["313.15"], ["0.3924"], ["101.3"], ["1.48469", "0.001"]], [["313.15"], ["0.5062"], ["101.3"], ["1.47354", "0.001"]], [["313.15"], ["0.6042"], ["101.3"], ["1.46435", "0.001"]], [["313.15"], ["0.6986"], ["101.3"], ["1.45613", "0.001"]], [["313.15"], ["0.7974"], ["101.3"], ["1.44723", "0.001"]], [["313.15"], ["0.8962"], ["101.3"], ["1.43633", "0.001"]], [["318.15"], ["0"], ["101.3"], ["1.57162", "0.001"]], [["318.15"], ["0.0989"], ["101.3"], ["1.54051", "0.001"]], [["318.15"], ["0.1792"], ["101.3"], ["1.51932", "0.001"]], [["318.15"], ["0.2896"], ["101.3"], ["1.49925", "0.001"]], [["318.15"], ["0.3924"], ["101.3"], ["1.48406", "0.001"]], [["318.15"], ["0.5062"], ["101.3"], ["1.47195", "0.001"]], [["318.15"], ["0.6042"], ["101.3"], ["1.46384", "0.001"]], [["318.15"], ["0.6986"], ["101.3"], ["1.45585", "0.001"]], [["318.15"], ["0.7974"], ["101.3"], ["1.44675", "0.001"]], [["318.15"], ["0.8962"], ["101.3"], ["1.43593", "0.001"]], [["323.15"], ["0"], ["101.3"], ["1.56906", "0.001"]], [["323.15"], ["0.0989"], ["101.3"], ["1.5384", "0.001"]], [["323.15"], ["0.1792"], ["101.3"], ["1.51837", "0.001"]], [["323.15"], ["0.2896"], ["101.3"], ["1.49834", "0.001"]], [["323.15"], ["0.3924"], ["101.3"], ["1.48343", "0.001"]], [["323.15"], ["0.5062"], ["101.3"], ["1.47145", "0.001"]], [["323.15"], ["0.6042"], ["101.3"], ["1.46245", "0.001"]], [["323.15"], ["0.6986"], ["101.3"], ["1.45524", "0.001"]], [["323.15"], ["0.7974"], ["101.3"], ["1.44585", "0.001"]], [["323.15"], ["0.8962"], ["101.3"], ["1.43553", "0.001"]]], "solvent": null, "expmeth": "Standard Abbe refractometry", "constr": [], "ref": {"title": "Investigation of Temperature, Composition, and Alkyl Chain-Dependent Molecular Interactions between Imidazolium-Based Ionic Liquids and Aniline: A Study of Experimental and Theoretical Thermophysical Properties", "full": "Master, Z.; Malek, N. I. (2021) J. Chem. Eng. Data 66(1), 154-169."}, "phases": ["Liquid"]}