{"title": "Refraction, surface tension, and speed of sound: Refractive index (Na D-line)", "components": [{"idout": "AADYJk", "mw": "18.02", "formula": "H<SUB>2</SUB>O", "name": "water", "sample": [["Source:", "commercial source"], ["Purification:", "estimated by the compiler"], ["Purity:", "99.8 mass %(fractional distillation)"]]}, {"name": "1-butyl-3-methylimidazolium L-serinate", "formula": "C<SUB>11</SUB>H<SUB>21</SUB>N<SUB>3</SUB>O<SUB>3</SUB>", "mw": "243.31", "idout": "AAupHc", "sample": [["Source:", "synthesized by the authors"], ["Purification:", "NMR (proton);not known"], ["Purity:", "99 mass %;0.2 halide impurity mass %(dried by vacuum heating)"]]}], "dhead": [["Temperature, K", null], ["Weight fraction of water", "Liquid"], ["Pressure, kPa", null], ["Refractive index (Na D-line)", "Liquid"]], "footer": "", "data": [[["298.15"], ["0.00594"], ["100"], ["1.5125", "0.0005"]], [["298.15"], ["0.00746"], ["100"], ["1.5122", "0.0005"]], [["298.15"], ["0.00898"], ["100"], ["1.5117", "0.0005"]], [["298.15"], ["0.0105"], ["100"], ["1.5112", "0.0005"]], [["298.15"], ["0.01211"], ["100"], ["1.5108", "0.0005"]], [["303.15"], ["0.00594"], ["100"], ["1.5117", "0.0005"]], [["303.15"], ["0.00746"], ["100"], ["1.5113", "0.0005"]], [["303.15"], ["0.00898"], ["100"], ["1.5109", "0.0005"]], [["303.15"], ["0.0105"], ["100"], ["1.5104", "0.0005"]], [["303.15"], ["0.01211"], ["100"], ["1.5099", "0.0005"]], [["308.15"], ["0.00594"], ["100"], ["1.5109", "0.0005"]], [["308.15"], ["0.00746"], ["100"], ["1.5104", "0.0005"]], [["308.15"], ["0.00898"], ["100"], ["1.5101", "0.0005"]], [["308.15"], ["0.0105"], ["100"], ["1.5096", "0.0005"]], [["308.15"], ["0.01211"], ["100"], ["1.5091", "0.0005"]], [["313.15"], ["0.00594"], ["100"], ["1.5099", "0.0005"]], [["313.15"], ["0.00746"], ["100"], ["1.5094", "0.0005"]], [["313.15"], ["0.00898"], ["100"], ["1.5091", "0.0005"]], [["313.15"], ["0.0105"], ["100"], ["1.5087", "0.0005"]], [["313.15"], ["0.01211"], ["100"], ["1.5083", "0.0005"]], [["318.15"], ["0.00594"], ["100"], ["1.5089", "0.0005"]], [["318.15"], ["0.00746"], ["100"], ["1.5084", "0.0005"]], [["318.15"], ["0.00898"], ["100"], ["1.5079", "0.0005"]], [["318.15"], ["0.0105"], ["100"], ["1.5075", "0.0005"]], [["318.15"], ["0.01211"], ["100"], ["1.5071", "0.0005"]], [["323.15"], ["0.00594"], ["100"], ["1.5078", "0.0005"]], [["323.15"], ["0.00746"], ["100"], ["1.5073", "0.0005"]], [["323.15"], ["0.00898"], ["100"], ["1.5068", "0.0005"]], [["323.15"], ["0.0105"], ["100"], ["1.5064", "0.0005"]], [["323.15"], ["0.01211"], ["100"], ["1.5059", "0.0005"]], [["328.15"], ["0.00594"], ["100"], ["1.5071", "0.0005"]], [["328.15"], ["0.00746"], ["100"], ["1.5065", "0.0005"]], [["328.15"], ["0.00898"], ["100"], ["1.5059", "0.0005"]], [["328.15"], ["0.0105"], ["100"], ["1.5055", "0.0005"]], [["328.15"], ["0.01211"], ["100"], ["1.5049", "0.0005"]], [["333.15"], ["0.00594"], ["100"], ["1.5059", "0.0005"]], [["333.15"], ["0.00746"], ["100"], ["1.5055", "0.0005"]], [["333.15"], ["0.00898"], ["100"], ["1.5049", "0.0005"]], [["333.15"], ["0.0105"], ["100"], ["1.5045", "0.0005"]], [["333.15"], ["0.01211"], ["100"], ["1.5041", "0.0005"]], [["338.15"], ["0.00594"], ["100"], ["1.5051", "0.0005"]], [["338.15"], ["0.00746"], ["100"], ["1.5045", "0.0005"]], [["338.15"], ["0.00898"], ["100"], ["1.5041", "0.0005"]], [["338.15"], ["0.0105"], ["100"], ["1.5036", "0.0005"]], [["338.15"], ["0.01211"], ["100"], ["1.5032", "0.0005"]]], "solvent": null, "expmeth": "Standard Abbe refractometry", "ref": {"full": "Wei, J.; Chang, C.; Zhang, Y.; Hou, S.; Fang, D.; Guan, W. (2015) J. Chem. Thermodyn. 90, 310-316.", "title": "Prediction of thermophysical properties of novel ionic liquids based on serine [Cnmim][Ser] (n = 3,4) using semiempirical methods"}, "constr": [], "phases": ["Liquid"]}