{"dhead": [["Temperature, K", null], ["Mole fraction of 1-ethyl-3-methylimidazolium ethyl sulfate", "Liquid"], ["Pressure, kPa", null], ["Refractive index (Na D-line)", "Liquid"]], "components": [{"mw": "88.11", "idout": "AAQxQx", "name": "2-methylpropanoic acid", "formula": "C<SUB>4</SUB>H<SUB>8</SUB>O<SUB>2</SUB>", "sample": [["Source:", "commercial source"], ["Initial purification:", "stated by supplier"], ["Initial purity:", "98 mass %"], ["Final purification:", "Karl Fischer titration"], ["Final purity:", "0.12 water mass %"]]}, {"sample": [["Source:", "synthesized by the authors"], ["Initial purification:", "stated by supplier"], ["Initial purity:", "99 mass %"], ["Final purification:", "Karl Fischer titration"], ["Final purity:", "0.03 water mass %(dried by vacuum heating;solvent extraction)"]], "formula": "C<SUB>8</SUB>H<SUB>16</SUB>N<SUB>2</SUB>O<SUB>4</SUB>S", "name": "1-ethyl-3-methylimidazolium ethyl sulfate", "mw": "236.29", "idout": "AAtWDT"}], "title": "Refraction, surface tension, and speed of sound: Refractive index (Na D-line)", "expmeth": "Standard Abbe refractometry", "data": [[["288.15"], ["0"], ["101.3"], ["1.3956", "0.008"]], [["288.15"], ["0.0424"], ["101.3"], ["1.4036", "0.008"]], [["288.15"], ["0.0664"], ["101.3"], ["1.4079", "0.008"]], [["288.15"], ["0.0927"], ["101.3"], ["1.4133", "0.008"]], [["288.15"], ["0.1873"], ["101.3"], ["1.4277", "0.008"]], [["288.15"], ["0.272"], ["101.3"], ["1.437", "0.008"]], [["288.15"], ["0.3588"], ["101.3"], ["1.4448", "0.008"]], [["288.15"], ["0.4536"], ["101.3"], ["1.452", "0.008"]], [["288.15"], ["0.5695"], ["101.3"], ["1.46", "0.008"]], [["288.15"], ["0.6703"], ["101.3"], ["1.4658", "0.008"]], [["288.15"], ["0.7705"], ["101.3"], ["1.4708", "0.008"]], [["288.15"], ["0.8878"], ["101.3"], ["1.4744", "0.008"]], [["288.15"], ["1"], ["101.3"], ["1.4779", "0.008"]], [["293.15"], ["0"], ["101.3"], ["1.3935", "0.008"]], [["293.15"], ["0.0424"], ["101.3"], ["1.4022", "0.008"]], [["293.15"], ["0.0664"], ["101.3"], ["1.4061", "0.008"]], [["293.15"], ["0.0927"], ["101.3"], ["1.4114", "0.008"]], [["293.15"], ["0.1873"], ["101.3"], ["1.426", "0.008"]], [["293.15"], ["0.272"], ["101.3"], ["1.4355", "0.008"]], [["293.15"], ["0.3588"], ["101.3"], ["1.4432", "0.008"]], [["293.15"], ["0.4536"], ["101.3"], ["1.4505", "0.008"]], [["293.15"], ["0.5695"], ["101.3"], ["1.4585", "0.008"]], [["293.15"], ["0.6703"], ["101.3"], ["1.4643", "0.008"]], [["293.15"], ["0.7705"], ["101.3"], ["1.4694", "0.008"]], [["293.15"], ["0.8878"], ["101.3"], ["1.4732", "0.008"]], [["293.15"], ["1"], ["101.3"], ["1.4761", "0.008"]], [["298.15"], ["0"], ["101.3"], ["1.3913", "0.008"]], [["298.15"], ["0.0424"], ["101.3"], ["1.4019", "0.008"]], [["298.15"], ["0.0664"], ["101.3"], ["1.4056", "0.008"]], [["298.15"], ["0.0927"], ["101.3"], ["1.4098", "0.008"]], [["298.15"], ["0.1873"], ["101.3"], ["1.4242", "0.008"]], [["298.15"], ["0.272"], ["101.3"], ["1.4339", "0.008"]], [["298.15"], ["0.3588"], ["101.3"], ["1.4415", "0.008"]], [["298.15"], ["0.4536"], ["101.3"], ["1.4488", "0.008"]], [["298.15"], ["0.5695"], ["101.3"], ["1.4569", "0.008"]], [["298.15"], ["0.6703"], ["101.3"], ["1.4624", "0.008"]], [["298.15"], ["0.7705"], ["101.3"], ["1.4679", "0.008"]], [["298.15"], ["0.8878"], ["101.3"], ["1.4719", "0.008"]], [["298.15"], ["1"], ["101.3"], ["1.4753", "0.008"]], [["303.15"], ["0"], ["101.3"], ["1.3892", "0.008"]], [["303.15"], ["0.0424"], ["101.3"], ["1.3984", "0.008"]], [["303.15"], ["0.0664"], ["101.3"], ["1.4029", "0.008"]], [["303.15"], ["0.0927"], ["101.3"], ["1.4079", "0.008"]], [["303.15"], ["0.1873"], ["101.3"], ["1.423", "0.008"]], [["303.15"], ["0.272"], ["101.3"], ["1.4323", "0.008"]], [["303.15"], ["0.3588"], ["101.3"], ["1.4402", "0.008"]], [["303.15"], ["0.4536"], ["101.3"], ["1.4475", "0.008"]], [["303.15"], ["0.5695"], ["101.3"], ["1.4556", "0.008"]], [["303.15"], ["0.6703"], ["101.3"], ["1.4615", "0.008"]], [["303.15"], ["0.7705"], ["101.3"], ["1.4665", "0.008"]], [["303.15"], ["0.8878"], ["101.3"], ["1.4704", "0.008"]], [["303.15"], ["1"], ["101.3"], ["1.4733", "0.008"]], [["308.15"], ["0"], ["101.3"], ["1.3871", "0.008"]], [["308.15"], ["0.0424"], ["101.3"], ["1.3976", "0.008"]], [["308.15"], ["0.0664"], ["101.3"], ["1.4016", "0.008"]], [["308.15"], ["0.0927"], ["101.3"], ["1.4062", "0.008"]], [["308.15"], ["0.1873"], ["101.3"], ["1.4208", "0.008"]], [["308.15"], ["0.272"], ["101.3"], ["1.4312", "0.008"]], [["308.15"], ["0.3588"], ["101.3"], ["1.4385", "0.008"]], [["308.15"], ["0.4536"], ["101.3"], ["1.4463", "0.008"]], [["308.15"], ["0.5695"], ["101.3"], ["1.4546", "0.008"]], [["308.15"], ["0.6703"], ["101.3"], ["1.4607", "0.008"]], [["308.15"], ["0.7705"], ["101.3"], ["1.4655", "0.008"]], [["308.15"], ["0.8878"], ["101.3"], ["1.4691", "0.008"]], [["308.15"], ["1"], ["101.3"], ["1.4727", "0.008"]], [["313.15"], ["0"], ["101.3"], ["1.386", "0.008"]], [["313.15"], ["0.0424"], ["101.3"], ["1.3951", "0.008"]], [["313.15"], ["0.0664"], ["101.3"], ["1.3992", "0.008"]], [["313.15"], ["0.0927"], ["101.3"], ["1.4042", "0.008"]], [["313.15"], ["0.1873"], ["101.3"], ["1.4196", "0.008"]], [["313.15"], ["0.272"], ["101.3"], ["1.4289", "0.008"]], [["313.15"], ["0.3588"], ["101.3"], ["1.4373", "0.008"]], [["313.15"], ["0.4536"], ["101.3"], ["1.4446", "0.008"]], [["313.15"], ["0.5695"], ["101.3"], ["1.4524", "0.008"]], [["313.15"], ["0.6703"], ["101.3"], ["1.4587", "0.008"]], [["313.15"], ["0.7705"], ["101.3"], ["1.4634", "0.008"]], [["313.15"], ["0.8878"], ["101.3"], ["1.4678", "0.008"]], [["313.15"], ["1"], ["101.3"], ["1.471", "0.008"]]], "solvent": null, "footer": "", "constr": [], "ref": {"title": "Thermophysical and thermodynamic properties of 1-ethyl-3-methylimidazolium ethylsulphate ionic liquid and its binary mixtures with pentanoic or 2-methylpropanoic acid at various temperatures", "full": "Oriyomi, O.; Arumugam, V.; Moodley, K. G.; Redhi, G. G. (2020) Phys. Chem. Liq. 58(2), 246-262."}, "phases": ["Liquid"]}