{"phases": ["Liquid mixture 1", "Liquid mixture 2"], "ref": {"full": "Wagner, M.; Stanga, O.; Schroer, W. (2004) Phys. Chem. Chem. Phys. 6(18), 4421-4431.", "title": "The liquid liquid coexistence of binary mixtures of the room temperature ionic liquid 1-methyl-3-hexylimidazolium tetrafluoroborate with alcohols"}, "constr": [], "expmeth": "minimum beam deflection method", "solvent": null, "data": [[["305.33"], ["101.325"], ["1.39836", "0.0006"]], [["307.19"], ["101.325"], ["1.39768", "0.0006"]], [["309.52"], ["101.325"], ["1.39693", "0.0006"]], [["310.93"], ["101.325"], ["1.39651", "0.0006"]], [["312.26"], ["101.325"], ["1.3961", "0.0006"]], [["313.62"], ["101.325"], ["1.3959", "0.0006"]], [["314.86"], ["101.325"], ["1.39572", "0.0006"]], [["315.45"], ["101.325"], ["1.39574", "0.0006"]], [["316.07"], ["101.325"], ["1.39586", "0.0006"]], [["316.39"], ["101.325"], ["1.39603", "0.0006"]], [["316.69"], ["101.325"], ["1.3962", "0.0006"]], [["316.92"], ["101.325"], ["1.39627", "0.0006"]], [["317.09"], ["101.325"], ["1.39658", "0.0006"]], [["317.2"], ["101.325"], ["1.39678", "0.0006"]], [["317.24"], ["101.325"], ["1.3971", "0.0006"]], [["317.28"], ["101.325"], ["1.39731", "0.00061"]], [["317.3"], ["101.325"], ["1.39753", "0.00062"]], [["317.315"], ["101.325"], ["1.39774", "0.00061"]]], "footer": "", "dhead": [["Temperature, K", null], ["Pressure, kPa", null], ["Refractive index (Na D-line)", "Liquid mixture 1"]], "components": [{"sample": [["Source:", "commercial source"], ["Purification:", "stated by supplier"], ["Purity:", "99 % (basis not specified)"], ["Purity analysis:", "none used"]], "formula": "C<SUB>5</SUB>H<SUB>12</SUB>O", "name": "pentan-2-ol", "idout": "AAQxVB", "mw": "88.15"}, {"sample": [["Source:", "commercial source"], ["Purity analysis:", "dried in a desiccator;dried by vacuum heating"]], "name": "1-hexyl-3-methylimidazolium tetrafluoroborate", "formula": "C<SUB>10</SUB>H<SUB>19</SUB>BF<SUB>4</SUB>N<SUB>2</SUB>", "idout": "AAwscj", "mw": "254.08"}], "title": "Refraction, surface tension, and speed of sound: Refractive index (Na D-line)"}