{"dhead": [["Temperature, K", null], ["Mole fraction of 1-butyl-3-methylimidazolium hexafluorophosphate", "Liquid"], ["Pressure, kPa", null], ["Refractive index (Na D-line)", "Liquid"]], "components": [{"mw": "59.11", "idout": "AALTAi", "formula": "C<SUB>3</SUB>H<SUB>9</SUB>N", "name": "propan-1-amine", "sample": [["Source:", "commercial source"], ["Initial purification:", "stated by supplier"], ["Initial purity:", "99 mass %"], ["Final purification:", "gas chromatography"], ["Final purity:", "99.6 mass %(fractional distillation;molecular sieve treatment)"]]}, {"sample": [["Source:", "synthesized by the authors"], ["Purification:", "NMR (proton)"], ["Purity:", "98 mass %"]], "idout": "ABChJv", "mw": "284.19", "formula": "C<SUB>8</SUB>H<SUB>15</SUB>F<SUB>6</SUB>N<SUB>2</SUB>P", "name": "1-butyl-3-methylimidazolium hexafluorophosphate"}], "title": "Refraction, surface tension, and speed of sound: Refractive index (Na D-line)", "expmeth": "Standard Abbe refractometry", "data": [[["293.15"], ["0.0974"], ["100"], ["1.4006", "0.005"]], [["293.15"], ["0.21"], ["100"], ["1.4087", "0.005"]], [["293.15"], ["0.31"], ["100"], ["1.4116", "0.005"]], [["293.15"], ["0.4044"], ["100"], ["1.4124", "0.005"]], [["293.15"], ["0.5634"], ["100"], ["1.413", "0.005"]], [["293.15"], ["0.6481"], ["100"], ["1.4128", "0.005"]], [["293.15"], ["0.7387"], ["100"], ["1.4125", "0.005"]], [["293.15"], ["0.845"], ["100"], ["1.4124", "0.005"]], [["293.15"], ["0.9316"], ["100"], ["1.4119", "0.005"]], [["298.15"], ["0.0974"], ["100"], ["1.3969", "0.005"]], [["298.15"], ["0.21"], ["100"], ["1.4034", "0.005"]], [["298.15"], ["0.31"], ["100"], ["1.4056", "0.005"]], [["298.15"], ["0.4044"], ["100"], ["1.4068", "0.005"]], [["298.15"], ["0.5634"], ["100"], ["1.4079", "0.005"]], [["298.15"], ["0.6481"], ["100"], ["1.4082", "0.005"]], [["298.15"], ["0.7387"], ["100"], ["1.4088", "0.005"]], [["298.15"], ["0.845"], ["100"], ["1.4096", "0.005"]], [["298.15"], ["0.9316"], ["100"], ["1.4101", "0.005"]], [["303.15"], ["0.0974"], ["100"], ["1.3957", "0.005"]], [["303.15"], ["0.21"], ["100"], ["1.403", "0.005"]], [["303.15"], ["0.31"], ["100"], ["1.4054", "0.005"]], [["303.15"], ["0.4044"], ["100"], ["1.4067", "0.005"]], [["303.15"], ["0.5634"], ["100"], ["1.4076", "0.005"]], [["303.15"], ["0.6481"], ["100"], ["1.4078", "0.005"]], [["303.15"], ["0.7387"], ["100"], ["1.4083", "0.005"]], [["303.15"], ["0.845"], ["100"], ["1.4093", "0.005"]], [["303.15"], ["0.9316"], ["100"], ["1.4093", "0.005"]], [["308.15"], ["0.0974"], ["100"], ["1.3936", "0.005"]], [["308.15"], ["0.21"], ["100"], ["1.4025", "0.005"]], [["308.15"], ["0.31"], ["100"], ["1.405", "0.005"]], [["308.15"], ["0.4044"], ["100"], ["1.406", "0.005"]], [["308.15"], ["0.5634"], ["100"], ["1.4064", "0.005"]], [["308.15"], ["0.6481"], ["100"], ["1.407", "0.005"]], [["308.15"], ["0.7387"], ["100"], ["1.4073", "0.005"]], [["308.15"], ["0.845"], ["100"], ["1.4076", "0.005"]], [["308.15"], ["0.9316"], ["100"], ["1.4081", "0.005"]], [["313.15"], ["0.0974"], ["100"], ["1.393", "0.005"]], [["313.15"], ["0.21"], ["100"], ["1.4017", "0.005"]], [["313.15"], ["0.31"], ["100"], ["1.4045", "0.005"]], [["313.15"], ["0.4044"], ["100"], ["1.4055", "0.005"]], [["313.15"], ["0.5634"], ["100"], ["1.4059", "0.005"]], [["313.15"], ["0.6481"], ["100"], ["1.4061", "0.005"]], [["313.15"], ["0.7387"], ["100"], ["1.4066", "0.005"]], [["313.15"], ["0.845"], ["100"], ["1.4067", "0.005"]], [["313.15"], ["0.9316"], ["100"], ["1.4069", "0.005"]]], "solvent": null, "footer": "", "constr": [], "ref": {"title": "Composition and Temperature Dependence of Excess Properties of Binary Mixtures of Imidazolium Based Ionic Liquids: II ([Cnmim][PF6]) + Propylamine", "full": "Vaid, Z.; More, U. U.; Gardas, R. L.; Malek, N. I.; Ijardar, S. P. (2015) J. Solution Chem. 44, 718-741."}, "phases": ["Liquid"]}