{"title": "Refraction, surface tension, and speed of sound: Refractive index (Na D-line)", "components": [{"sample": [["Source:", "commercial source"], ["Purification:", "stated by supplier"], ["Purity:", "99.8 % (basis not specified)"], ["Purity analysis:", "de-gassed by boiling or ultrasonically;molecular sieve treatment"]], "mw": "46.07", "idout": "AAIsrh", "name": "ethanol", "formula": "C<SUB>2</SUB>H<SUB>6</SUB>O"}, {"sample": [["Source:", "commercial source"], ["Purification:", "estimated by the compiler"], ["Purity:", "99.8 % (basis not specified)(fractional distillation)"]], "idout": "AADYJk", "mw": "18.02", "name": "water", "formula": "H<SUB>2</SUB>O"}, {"sample": [["Source:", "synthesized by the authors"]], "name": "1-methyl-3-octylimidazolium chloride", "formula": "C<SUB>12</SUB>H<SUB>23</SUB>ClN<SUB>2</SUB>", "idout": "AAsTjr", "mw": "230.78"}], "dhead": [["Mole fraction of ethanol", "Liquid"], ["Mole fraction of water", "Liquid"], ["Pressure, kPa", null], ["Temperature, K", null], ["Refractive index (Na D-line)", "Liquid"]], "footer": "", "data": [[["0.0467"], ["0.9348"], ["101"], ["298.15"], ["1.36831", "0.00073"]], [["0.0558"], ["0.9143"], ["101"], ["298.15"], ["1.3819", "0.00073"]], [["0.0679"], ["0.8854"], ["101"], ["298.15"], ["1.39833", "0.00073"]], [["0.0766"], ["0.8576"], ["101"], ["298.15"], ["1.41129", "0.00074"]], [["0.0826"], ["0.91"], ["101"], ["298.15"], ["1.35765", "0.00073"]], [["0.0929"], ["0.8165"], ["101"], ["298.15"], ["1.42562", "0.00075"]], [["0.0962"], ["0.8862"], ["101"], ["298.15"], ["1.37031", "0.00073"]], [["0.0984"], ["0.1869"], ["101"], ["298.15"], ["1.50191", "0.001"]], [["0.1218"], ["0.7443"], ["101"], ["298.15"], ["1.44104", "0.00076"]], [["0.1329"], ["0.8601"], ["101"], ["298.15"], ["1.36124", "0.00074"]], [["0.1594"], ["0.6721"], ["101"], ["298.15"], ["1.44928", "0.00076"]], [["0.1807"], ["0.7375"], ["101"], ["298.15"], ["1.41834", "0.00076"]], [["0.1867"], ["0.7875"], ["101"], ["298.15"], ["1.38199", "0.00076"]], [["0.1968"], ["0.1665"], ["101"], ["298.15"], ["1.49589", "0.00097"]], [["0.2008"], ["0.4721"], ["101"], ["298.15"], ["1.47378", "0.00081"]], [["0.2008"], ["0.7927"], ["101"], ["298.15"], ["1.36427", "0.00076"]], [["0.2235"], ["0.6582"], ["101"], ["298.15"], ["1.43225", "0.00075"]], [["0.2254"], ["0.7596"], ["101"], ["298.15"], ["1.37306", "0.00075"]], [["0.2604"], ["0.7162"], ["101"], ["298.15"], ["1.38087", "0.00079"]], [["0.2624"], ["0.3089"], ["101"], ["298.15"], ["1.48118", "0.00085"]], [["0.2733"], ["0.7208"], ["101"], ["298.15"], ["1.36592", "0.0008"]], [["0.2777"], ["0.4267"], ["101"], ["298.15"], ["1.46709", "0.00079"]], [["0.2833"], ["0.1486"], ["101"], ["298.15"], ["1.49005", "0.00093"]], [["0.2958"], ["0.669"], ["101"], ["298.15"], ["1.39021", "0.00076"]], [["0.3057"], ["0.6808"], ["101"], ["298.15"], ["1.37294", "0.00077"]], [["0.3069"], ["0.6239"], ["101"], ["298.15"], ["1.4094", "0.00074"]], [["0.3218"], ["0.5748"], ["101"], ["298.15"], ["1.42378", "0.00076"]], [["0.3263"], ["0.5386"], ["101"], ["298.15"], ["1.43391", "0.00077"]], [["0.3335"], ["0.6189"], ["101"], ["298.15"], ["1.39734", "0.00078"]], [["0.3386"], ["0.6405"], ["101"], ["298.15"], ["1.37926", "0.0008"]], [["0.3599"], ["0.268"], ["101"], ["298.15"], ["1.47289", "0.00083"]], [["0.3651"], ["0.6297"], ["101"], ["298.15"], ["1.36663", "0.00082"]], [["0.366"], ["0.5069"], ["101"], ["298.15"], ["1.4304", "0.00076"]], [["0.3714"], ["0.5658"], ["101"], ["298.15"], ["1.4094", "0.00079"]], [["0.3806"], ["0.3659"], ["101"], ["298.15"], ["1.4575", "0.00078"]], [["0.3954"], ["0.5743"], ["101"], ["298.15"], ["1.38593", "0.00081"]], [["0.4166"], ["0.5418"], ["101"], ["298.15"], ["1.3925", "0.00079"]], [["0.4363"], ["0.4778"], ["101"], ["298.15"], ["1.41372", "0.0008"]], [["0.4432"], ["0.2332"], ["101"], ["298.15"], ["1.46531", "0.00081"]], [["0.4437"], ["0.5387"], ["101"], ["298.15"], ["1.37657", "0.00083"]], [["0.4443"], ["0.5002"], ["101"], ["298.15"], ["1.39964", "0.00081"]], [["0.4617"], ["0.4303"], ["101"], ["298.15"], ["1.421", "0.00076"]], [["0.5079"], ["0.2907"], ["101"], ["298.15"], ["1.44384", "0.00077"]], [["0.532"], ["0.3966"], ["101"], ["298.15"], ["1.40523", "0.0008"]], [["0.5377"], ["0.4533"], ["101"], ["298.15"], ["1.3699", "0.00081"]], [["0.544"], ["0.4234"], ["101"], ["298.15"], ["1.38532", "0.0008"]], [["0.5558"], ["0.186"], ["101"], ["298.15"], ["1.4523", "0.00078"]], [["0.5841"], ["0.3951"], ["101"], ["298.15"], ["1.3778", "0.00079"]], [["0.5878"], ["0.3295"], ["101"], ["298.15"], ["1.40841", "0.00075"]], [["0.6004"], ["0.2361"], ["101"], ["298.15"], ["1.43252", "0.00075"]], [["0.6077"], ["0.3891"], ["101"], ["298.15"], ["1.36557", "0.00079"]], [["0.6374"], ["0.3073"], ["101"], ["298.15"], ["1.39554", "0.00075"]], [["0.6743"], ["0.2932"], ["101"], ["298.15"], ["1.38333", "0.00076"]], [["0.6985"], ["0.0625"], ["101"], ["298.15"], ["1.44546", "0.00077"]], [["0.6991"], ["0.1777"], ["101"], ["298.15"], ["1.41902", "0.00075"]], [["0.7005"], ["0.2845"], ["101"], ["298.15"], ["1.3729", "0.00075"]], [["0.7599"], ["0.1919"], ["101"], ["298.15"], ["1.38964", "0.00074"]], [["0.7937"], ["0.0428"], ["101"], ["298.15"], ["1.42733", "0.00075"]], [["0.7997"], ["0.1184"], ["101"], ["298.15"], ["1.40247", "0.00074"]], [["0.847"], ["0.1454"], ["101"], ["298.15"], ["1.36639", "0.00073"]]], "solvent": null, "expmeth": "Standard Abbe refractometry", "constr": [], "ref": {"full": "Calvar, N.; Gomez, E.; Gonzalez, B.; Dominguez, A. (2007) J. Chem. Eng. Data 52(6), 2529-2535.", "title": "Experimental Determination, Correlation, and Prediction of Physical Properties of the Ternary Mixtures Ethanol + Water with 1-Octyl-3-methylimidazolium Chloride and 1-Ethyl-3-methylimidazolium Ethylsulfate"}, "phases": ["Liquid"]}