{"ref": {"title": "Densities, Refractive Indices, and Viscosities of the Ionic Liquids 1-Methyl-3-octylimidazolium Tetrafluoroborate and 1-Methyl-3-butylimidazolium Perchlorate and Their Binary Mixtures with Ethanol at Several Temperatures", "full": "Mokhtarani, B.; Mojtahedi, M. M.; Mortaheb, H. R.; Mafi, M.; Yazdani, F.; Sadeghian, F. (2008) J. Chem. Eng. Data 53(3), 677-682."}, "constr": [], "phases": ["Liquid"], "title": "Refraction, surface tension, and speed of sound: Refractive index (Na D-line)", "components": [{"mw": "282.13", "idout": "ABCNhW", "name": "1-methyl-3-octylimidazolium tetrafluoroborate", "formula": "C<SUB>12</SUB>H<SUB>23</SUB>BF<SUB>4</SUB>N<SUB>2</SUB>", "sample": [["Source:", "commercial source"], ["Initial purification:", "stated by supplier"], ["Initial purity:", "98 % (basis not specified)"], ["Final purification:", "Karl Fischer titration;not known"], ["Final purity:", "0.0024 water mass %;0.1 halide impurity mass %"]]}], "dhead": [["Temperature, K", null], ["Pressure, kPa", null], ["Refractive index (Na D-line)", "Liquid"]], "footer": "", "data": [[["283.15"], ["101.325"], ["1.4363", "0.0008"]], [["288.15"], ["101.325"], ["1.435", "0.0008"]], [["293.15"], ["101.325"], ["1.4336", "0.0008"]], [["298.15"], ["101.325"], ["1.4322", "0.0008"]], [["303.15"], ["101.325"], ["1.431", "0.0008"]], [["308.15"], ["101.325"], ["1.4288", "0.0008"]], [["313.15"], ["101.325"], ["1.4271", "0.0008"]], [["318.15"], ["101.325"], ["1.426", "0.0008"]], [["323.15"], ["101.325"], ["1.425", "0.0008"]], [["328.15"], ["101.325"], ["1.4235", "0.0008"]], [["333.15"], ["101.325"], ["1.4222", "0.0008"]], [["338.15"], ["101.325"], ["1.421", "0.0008"]], [["343.15"], ["101.325"], ["1.4195", "0.0008"]], [["348.15"], ["101.325"], ["1.418", "0.0008"]], [["353.15"], ["101.325"], ["1.4167", "0.0008"]], [["358.15"], ["101.325"], ["1.4155", "0.0008"]], [["363.15"], ["101.325"], ["1.4142", "0.0008"]]], "solvent": null, "expmeth": "Standard Abbe refractometry"}