{"constr": [], "ref": {"title": "Intermolecular Interactions between 1-Ethyl-3-methylimidazolium-Based Ionic Liquids with Carboxylic Acid at Different Temperatures via Thermodynamic and Spectroscopic Studies", "full": "Masilo, K.; Bahadur, I. (2021) J. Chem. Eng. Data 66(3), 1211-1230."}, "phases": ["Liquid"], "title": "Refraction, surface tension, and speed of sound: Refractive index (Na D-line)", "components": [{"formula": "C<SUB>7</SUB>H<SUB>14</SUB>N<SUB>2</SUB>O<SUB>4</SUB>S", "name": "1-ethyl-3-methylimidazolium methyl sulfate", "idout": "AAqmVN", "mw": "222.26", "sample": [["Source:", "commercial source"], ["Purification:", "stated by supplier"], ["Purity:", "98 mass %"]]}, {"sample": [["Source:", "commercial source"], ["Purification:", "stated by supplier"], ["Purity:", "99 mass %"]], "name": "acetic acid", "formula": "C<SUB>2</SUB>H<SUB>4</SUB>O<SUB>2</SUB>", "idout": "AALcAl", "mw": "60.05"}], "dhead": [["Temperature, K", null], ["Mole fraction of 1-ethyl-3-methylimidazolium methyl sulfate", "Liquid"], ["Pressure, kPa", null], ["Refractive index (Na D-line)", "Liquid"]], "footer": "", "data": [[["293.15"], ["0"], ["100"], ["1.378", "0.006"]], [["293.15"], ["0.0456"], ["100"], ["1.391", "0.006"]], [["293.15"], ["0.1037"], ["100"], ["1.408", "0.006"]], [["293.15"], ["0.2005"], ["100"], ["1.427", "0.006"]], [["293.15"], ["0.3039"], ["100"], ["1.441", "0.006"]], [["293.15"], ["0.3999"], ["100"], ["1.451", "0.006"]], [["293.15"], ["0.5002"], ["100"], ["1.461", "0.006"]], [["293.15"], ["0.6047"], ["100"], ["1.466", "0.006"]], [["293.15"], ["0.701"], ["100"], ["1.468", "0.006"]], [["293.15"], ["0.7974"], ["100"], ["1.475", "0.006"]], [["293.15"], ["0.8922"], ["100"], ["1.479", "0.006"]], [["293.15"], ["0.9596"], ["100"], ["1.481", "0.006"]], [["293.15"], ["1"], ["100"], ["1.483", "0.006"]], [["303.15"], ["0"], ["100"], ["1.374", "0.006"]], [["303.15"], ["0.0456"], ["100"], ["1.388", "0.006"]], [["303.15"], ["0.1037"], ["100"], ["1.404", "0.006"]], [["303.15"], ["0.2005"], ["100"], ["1.423", "0.006"]], [["303.15"], ["0.3039"], ["100"], ["1.438", "0.006"]], [["303.15"], ["0.3999"], ["100"], ["1.448", "0.006"]], [["303.15"], ["0.5002"], ["100"], ["1.46", "0.006"]], [["303.15"], ["0.6047"], ["100"], ["1.463", "0.006"]], [["303.15"], ["0.701"], ["100"], ["1.465", "0.006"]], [["303.15"], ["0.7974"], ["100"], ["1.473", "0.006"]], [["303.15"], ["0.8922"], ["100"], ["1.476", "0.006"]], [["303.15"], ["0.9596"], ["100"], ["1.479", "0.006"]], [["303.15"], ["1"], ["100"], ["1.48", "0.006"]], [["313.15"], ["0"], ["100"], ["1.368", "0.006"]], [["313.15"], ["0.0456"], ["100"], ["1.383", "0.006"]], [["313.15"], ["0.1037"], ["100"], ["1.401", "0.006"]], [["313.15"], ["0.2005"], ["100"], ["1.42", "0.006"]], [["313.15"], ["0.3039"], ["100"], ["1.437", "0.006"]], [["313.15"], ["0.3999"], ["100"], ["1.448", "0.006"]], [["313.15"], ["0.5002"], ["100"], ["1.457", "0.006"]], [["313.15"], ["0.6047"], ["100"], ["1.46", "0.006"]], [["313.15"], ["0.701"], ["100"], ["1.462", "0.006"]], [["313.15"], ["0.7974"], ["100"], ["1.471", "0.006"]], [["313.15"], ["0.8922"], ["100"], ["1.474", "0.006"]], [["313.15"], ["0.9596"], ["100"], ["1.476", "0.006"]], [["313.15"], ["1"], ["100"], ["1.475", "0.006"]], [["323.15"], ["0"], ["100"], ["1.366", "0.006"]], [["323.15"], ["0.0456"], ["100"], ["1.383", "0.006"]], [["323.15"], ["0.1037"], ["100"], ["1.399", "0.006"]], [["323.15"], ["0.2005"], ["100"], ["1.418", "0.006"]], [["323.15"], ["0.3039"], ["100"], ["1.435", "0.006"]], [["323.15"], ["0.3999"], ["100"], ["1.446", "0.006"]], [["323.15"], ["0.5002"], ["100"], ["1.455", "0.006"]], [["323.15"], ["0.6047"], ["100"], ["1.459", "0.006"]], [["323.15"], ["0.701"], ["100"], ["1.461", "0.006"]], [["323.15"], ["0.7974"], ["100"], ["1.469", "0.006"]], [["323.15"], ["0.8922"], ["100"], ["1.473", "0.006"]], [["323.15"], ["0.9596"], ["100"], ["1.474", "0.006"]], [["323.15"], ["1"], ["100"], ["1.474", "0.006"]], [["333.15"], ["0"], ["100"], ["1.363", "0.006"]], [["333.15"], ["0.0456"], ["100"], ["1.38", "0.006"]], [["333.15"], ["0.1037"], ["100"], ["1.396", "0.006"]], [["333.15"], ["0.2005"], ["100"], ["1.415", "0.006"]], [["333.15"], ["0.3039"], ["100"], ["1.433", "0.006"]], [["333.15"], ["0.3999"], ["100"], ["1.444", "0.006"]], [["333.15"], ["0.5002"], ["100"], ["1.453", "0.006"]], [["333.15"], ["0.6047"], ["100"], ["1.456", "0.006"]], [["333.15"], ["0.701"], ["100"], ["1.459", "0.006"]], [["333.15"], ["0.7974"], ["100"], ["1.467", "0.006"]], [["333.15"], ["0.8922"], ["100"], ["1.471", "0.006"]], [["333.15"], ["0.9596"], ["100"], ["1.471", "0.006"]], [["333.15"], ["1"], ["100"], ["1.471", "0.006"]]], "solvent": null, "expmeth": "Standard Abbe refractometry"}