{"components": [{"idout": "AAriGj", "mw": "227.01", "formula": "C<SUB>7</SUB>H<SUB>14</SUB>BF<SUB>4</SUB>N<SUB>3</SUB>", "name": "1-(3-aminopropyl)-3-methyl-1H-imidazolium tetrafluoroborate", "sample": [["Source:", "synthesized by the authors"], ["Initial purification:", "estimated by the compiler"], ["Initial purity:", "99 mol %"], ["Final purification:", "Karl Fischer titration"], ["Final purity:", "0.03 water mass %"]]}], "title": "Refraction, surface tension, and speed of sound: Refractive index (Na D-line)", "dhead": [["Temperature, K", null], ["Pressure, kPa", null], ["Refractive index (Na D-line)", "Liquid"]], "data": [[["288.15"], ["101"], ["1.452", "0.0005"]], [["293.15"], ["101"], ["1.451", "0.0005"]], [["298.15"], ["101"], ["1.4499", "0.0005"]], [["303.15"], ["101"], ["1.4489", "0.0005"]], [["308.15"], ["101"], ["1.4479", "0.0005"]], [["313.15"], ["101"], ["1.4468", "0.0005"]], [["318.15"], ["101"], ["1.4458", "0.0005"]], [["323.15"], ["101"], ["1.4447", "0.0005"]], [["328.15"], ["101"], ["1.4436", "0.0005"]], [["333.15"], ["101"], ["1.4427", "0.0005"]], [["338.15"], ["101"], ["1.4417", "0.0005"]], [["343.15"], ["101"], ["1.4406", "0.0005"]], [["348.15"], ["101"], ["1.4395", "0.0005"]], [["353.15"], ["101"], ["1.4385", "0.0005"]]], "solvent": null, "footer": "", "expmeth": "Standard Abbe refractometry", "constr": [], "ref": {"full": "Wang, Guoxi; Zhou, Chenming; Xing, Zheng; Wang, Xin; Zhang, Xinyuan; Zhang, Qingguo (2023) J. Solution Chem. 52, 467-86.", "title": "Thermodynamic Properties and Intermolecular Interacting Behaviors of Amino.Functionalized Ionic Liquid Binary Mixtures of 1.Aminopropyl.3.methylimidazolium Tetrafluoroborate with Dimethyl Sulfoxide and Acetonitrile"}, "phases": ["Liquid"]}