{"title": "Refraction, surface tension, and speed of sound: Refractive index (Na D-line)", "components": [{"idout": "AALcwx", "mw": "60.10", "formula": "C<SUB>3</SUB>H<SUB>8</SUB>O", "name": "propan-2-ol", "sample": [["Source:", "commercial source"], ["Purification:", "gas chromatography"], ["Purity:", "99.7 mass %(de-gassed by boiling or ultrasonically;molecular sieve treatment)"]]}, {"mw": "312.24", "idout": "ABICIG", "formula": "C<SUB>10</SUB>H<SUB>19</SUB>F<SUB>6</SUB>N<SUB>2</SUB>P", "name": "1-hexyl-3-methylimidazolium hexafluorophosphate", "sample": [["Source:", "commercial source"], ["Purification:", "Karl Fischer titration;gas chromatography"], ["Purity:", "0.03 water mass %;98 mass %(dried by vacuum heating)"]]}], "dhead": [["Temperature, K", null], ["Mole fraction of 1-hexyl-3-methylimidazolium hexafluorophosphate", "Liquid"], ["Pressure, kPa", null], ["Refractive index (Na D-line)", "Liquid"]], "footer": "", "data": [[["293.15"], ["0"], ["101"], ["1.37707", "0.00075"]], [["293.15"], ["0.0011"], ["101"], ["1.37727", "0.00076"]], [["293.15"], ["0.0019"], ["101"], ["1.37764", "0.00078"]], [["293.15"], ["0.6123"], ["101"], ["1.41255", "0.00074"]], [["293.15"], ["0.6958"], ["101"], ["1.41425", "0.00073"]], [["293.15"], ["0.811"], ["101"], ["1.41602", "0.00076"]], [["293.15"], ["0.926"], ["101"], ["1.41766", "0.00079"]], [["293.15"], ["0.9933"], ["101"], ["1.419", "0.00078"]], [["293.15"], ["1"], ["101"], ["1.41923", "0.00079"]], [["298.15"], ["0"], ["101"], ["1.37496", "0.00076"]], [["298.15"], ["0.0011"], ["101"], ["1.37513", "0.00076"]], [["298.15"], ["0.0019"], ["101"], ["1.37534", "0.00077"]], [["298.15"], ["0.0024"], ["101"], ["1.37542", "0.00076"]], [["298.15"], ["0.4893"], ["101"], ["1.40818", "0.0007"]], [["298.15"], ["0.6123"], ["101"], ["1.41101", "0.00074"]], [["298.15"], ["0.6958"], ["101"], ["1.41282", "0.00074"]], [["298.15"], ["0.811"], ["101"], ["1.41451", "0.00076"]], [["298.15"], ["0.926"], ["101"], ["1.41628", "0.00078"]], [["298.15"], ["0.9933"], ["101"], ["1.41766", "0.00079"]], [["298.15"], ["1"], ["101"], ["1.41787", "0.00079"]], [["303.15"], ["0"], ["101"], ["1.37278", "0.00076"]], [["303.15"], ["0.0011"], ["101"], ["1.37296", "0.00075"]], [["303.15"], ["0.0019"], ["101"], ["1.37319", "0.00076"]], [["303.15"], ["0.0024"], ["101"], ["1.37337", "0.00075"]], [["303.15"], ["0.4893"], ["101"], ["1.40669", "0.001"]], [["303.15"], ["0.6123"], ["101"], ["1.40962", "0.00074"]], [["303.15"], ["0.6958"], ["101"], ["1.41139", "0.00076"]], [["303.15"], ["0.811"], ["101"], ["1.41312", "0.00076"]], [["303.15"], ["0.926"], ["101"], ["1.4149", "0.00077"]], [["303.15"], ["0.9933"], ["101"], ["1.41624", "0.00079"]], [["303.15"], ["1"], ["101"], ["1.41643", "0.00079"]]], "solvent": null, "expmeth": "Standard Abbe refractometry", "ref": {"title": "Thermodynamic Properties of Ionic Liquids in Organic Solvents from (293.15 to 303.15) K", "full": "Pereiro, A. B.; Rodriguez, A. (2007) J. Chem. Eng. Data 52(2), 600-608."}, "constr": [], "phases": ["Liquid"]}