{"constr": [], "ref": {"title": "Experimental and theoretical excess molar properties of imidazolium based ionic liquids with molecular organic solvents  I. 1-Hexyl-3- methylimidazlouim tetraflouroborate and 1-octyl-3-methylimidazlouim tetraflouroborate with cyclic ethers", "full": "Ijardar, S. P.; Malek, N. I. (2014) J. Chem. Thermodyn. 71, 236-248."}, "phases": ["Liquid"], "title": "Refraction, surface tension, and speed of sound: Refractive index (Na D-line)", "components": [{"formula": "C<SUB>4</SUB>H<SUB>8</SUB>O", "name": "tetrahydrofuran", "idout": "AANtst", "mw": "72.11", "sample": [["Source:", "commercial source"], ["Initial purification:", "stated by supplier"], ["Initial purity:", "99 mass %"], ["Final purification:", "gas chromatography"], ["Final purity:", "99.3 % (basis not specified)(dried with chemical reagent;fractional distillation)"]]}, {"sample": [["Source:", "synthesized by the authors"], ["Purification:", "estimated by the compiler;Karl Fischer titration"], ["Purity:", "98 mass %;0.01 water mass %(dried by vacuum heating;solvent extraction)"]], "formula": "C<SUB>12</SUB>H<SUB>23</SUB>BF<SUB>4</SUB>N<SUB>2</SUB>", "name": "1-methyl-3-octylimidazolium tetrafluoroborate", "mw": "282.13", "idout": "ABCNhW"}], "dhead": [["Temperature, K", null], ["Mole fraction of 1-methyl-3-octylimidazolium tetrafluoroborate", "Liquid"], ["Pressure, kPa", null], ["Refractive index (Na D-line)", "Liquid"]], "footer": "", "data": [[["298.15"], ["0"], ["101"], ["1.4042", "0.00039"]], [["298.15"], ["0.0963"], ["101"], ["1.41425", "0.00039"]], [["298.15"], ["0.2018"], ["101"], ["1.42039", "0.0004"]], [["298.15"], ["0.312"], ["101"], ["1.42432", "0.00042"]], [["298.15"], ["0.4027"], ["101"], ["1.42658", "0.00043"]], [["298.15"], ["0.4917"], ["101"], ["1.42817", "0.00044"]], [["298.15"], ["0.6241"], ["101"], ["1.42996", "0.00047"]], [["298.15"], ["0.6862"], ["101"], ["1.43062", "0.00048"]], [["298.15"], ["0.7615"], ["101"], ["1.43129", "0.00049"]], [["298.15"], ["0.8612"], ["101"], ["1.43207", "0.00051"]], [["298.15"], ["1"], ["101"], ["1.43296", "0.00053"]], [["308.15"], ["0"], ["101"], ["1.39885", "0.00039"]], [["308.15"], ["0.0963"], ["101"], ["1.40956", "0.00039"]], [["308.15"], ["0.2018"], ["101"], ["1.4162", "0.0004"]], [["308.15"], ["0.312"], ["101"], ["1.42045", "0.00042"]], [["308.15"], ["0.4027"], ["101"], ["1.4228", "0.00043"]], [["308.15"], ["0.4917"], ["101"], ["1.42451", "0.00044"]], [["308.15"], ["0.6241"], ["101"], ["1.42631", "0.00046"]], [["308.15"], ["0.6862"], ["101"], ["1.42695", "0.00047"]], [["308.15"], ["0.7615"], ["101"], ["1.4277", "0.00049"]], [["308.15"], ["0.8612"], ["101"], ["1.42846", "0.00051"]], [["308.15"], ["1"], ["101"], ["1.42939", "0.00053"]], [["318.15"], ["0"], ["101"], ["1.39349", "0.00039"]], [["318.15"], ["0.0963"], ["101"], ["1.40529", "0.0004"]], [["318.15"], ["0.2018"], ["101"], ["1.41236", "0.00041"]], [["318.15"], ["0.312"], ["101"], ["1.41715", "0.00042"]], [["318.15"], ["0.4027"], ["101"], ["1.41965", "0.00043"]], [["318.15"], ["0.4917"], ["101"], ["1.42147", "0.00044"]], [["318.15"], ["0.6241"], ["101"], ["1.42348", "0.00046"]], [["318.15"], ["0.6862"], ["101"], ["1.42415", "0.00047"]], [["318.15"], ["0.7615"], ["101"], ["1.42493", "0.00049"]], [["318.15"], ["0.8612"], ["101"], ["1.4258", "0.00051"]], [["318.15"], ["1"], ["101"], ["1.42684", "0.00053"]]], "solvent": null, "expmeth": "Standard Abbe refractometry"}