{"constr": [], "ref": {"title": "Phase behavior of aqueous two-phase systems composed of1-alkyl-3-methylimidazolium bromide + Rb2CO3/Cs2CO3+ water", "full": "Yin, G.; Li, S.; Zhai, Q.; Jiang, Y.; Hu, M. (2013) Thermochim. Acta 566, 149-54."}, "phases": ["Liquid"], "components": [{"name": "rubidium carbonate", "formula": "CO<SUB>3</SUB>Rb<SUB>2</SUB>", "mw": "230.94", "idout": "AAsVDg", "sample": [["Source:", "commercial source"], ["Purification:", "stated by supplier"], ["Purity:", "99.5 mass %"]]}, {"name": "water", "formula": "H<SUB>2</SUB>O", "idout": "AADYJk", "mw": "18.02", "sample": [["Source:", "commercial source"], ["Purification:", "estimated by the compiler"], ["Purity:", "99.9 mol %(fractional distillation)"]]}, {"mw": "219.13", "idout": "AAqHiH", "name": "1-butyl-3-methylimidazolium bromide", "formula": "C<SUB>8</SUB>H<SUB>15</SUB>BrN<SUB>2</SUB>", "sample": [["Source:", "commercial source"], ["Purification:", "stated by supplier"], ["Purity:", "99 mass %"]]}], "title": "Refraction, surface tension, and speed of sound: Refractive index (Na D-line)", "dhead": [["Weight fraction of 1-butyl-3-methylimidazolium bromide", "Liquid"], ["Weight fraction of rubidium carbonate", "Liquid"], ["Temperature, K", null], ["Pressure, kPa", null], ["Refractive index (Na D-line)", "Liquid"]], "solvent": null, "data": [[["0.0169"], ["0.06"], ["298.15"], ["101"], ["1.34151", "0.00031"]], [["0.0171"], ["0"], ["298.15"], ["101"], ["1.33496", "0.00031"]], [["0.0172"], ["0.0299"], ["298.15"], ["101"], ["1.33827", "0.00031"]], [["0.0337"], ["0.06"], ["298.15"], ["101"], ["1.34419", "0.00031"]], [["0.0338"], ["0.03"], ["298.15"], ["101"], ["1.34087", "0.00031"]], [["0.034"], ["0"], ["298.15"], ["101"], ["1.33752", "0.00031"]], [["0.0508"], ["0.06"], ["298.15"], ["101"], ["1.34695", "0.00031"]], [["0.0512"], ["0"], ["298.15"], ["101"], ["1.34015", "0.00031"]], [["0.0512"], ["0.0299"], ["298.15"], ["101"], ["1.34361", "0.00031"]], [["0.068"], ["0.03"], ["298.15"], ["101"], ["1.34629", "0.00031"]], [["0.0681"], ["0"], ["298.15"], ["101"], ["1.34278", "0.00031"]], [["0.0681"], ["0.06"], ["298.15"], ["101"], ["1.34977", "0.00031"]], [["0.0852"], ["0.0299"], ["298.15"], ["101"], ["1.34907", "0.00031"]], [["0.0852"], ["0.06"], ["298.15"], ["101"], ["1.35262", "0.00031"]], [["0.0853"], ["0"], ["298.15"], ["101"], ["1.34551", "0.00031"]], [["0.1022"], ["0.0299"], ["298.15"], ["101"], ["1.35187", "0.00032"]], [["0.1025"], ["0"], ["298.15"], ["101"], ["1.34823", "0.00031"]], [["0.1026"], ["0.06"], ["298.15"], ["101"], ["1.35556", "0.00032"]], [["0.1191"], ["0.0299"], ["298.15"], ["101"], ["1.35467", "0.00032"]], [["0.1194"], ["0"], ["298.15"], ["101"], ["1.35097", "0.00032"]], [["0.1195"], ["0.06"], ["298.15"], ["101"], ["1.35846", "0.00032"]], [["0.1364"], ["0.0601"], ["298.15"], ["101"], ["1.36136", "0.00032"]], [["0.1365"], ["0.0299"], ["298.15"], ["101"], ["1.35761", "0.00032"]], [["0.1366"], ["0"], ["298.15"], ["101"], ["1.35379", "0.00032"]], [["0.1508"], ["0.0301"], ["298.15"], ["101"], ["1.36005", "0.00032"]], [["0.153"], ["0.06"], ["298.15"], ["101"], ["1.36425", "0.00032"]], [["0.1536"], ["0"], ["298.15"], ["101"], ["1.3566", "0.0003"]], [["0.1705"], ["0"], ["298.15"], ["101"], ["1.35943", "0.00032"]], [["0.1713"], ["0.06"], ["298.15"], ["101"], ["1.36751", "0.00032"]], [["0.1734"], ["0.0299"], ["298.15"], ["101"], ["1.36393", "0.00032"]]], "footer": "", "expmeth": "Standard Abbe refractometry"}