{"constr": [], "ref": {"title": "The effect of the cation aromaticity upon the thermophysical properties of piperidinium- and pyridinium-based Ionic Liquids", "full": "Bhattacharjee, A.; Carvalho, P. J.; Coutinho, J. A. P. (2014) Fluid Phase Equilib. 375, 80-88."}, "phases": ["Liquid"], "title": "Refraction, surface tension, and speed of sound: Refractive index (Na D-line)", "components": [{"name": "3-methyl-1-propylpyridinium bis(trifluoromethylsulfonyl)imide", "formula": "C<SUB>11</SUB>H<SUB>14</SUB>F<SUB>6</SUB>N<SUB>2</SUB>O<SUB>4</SUB>S<SUB>2</SUB>", "mw": "416.35", "idout": "ABcDdV", "sample": [["Source:", "commercial source"], ["Initial purification:", "stated by supplier"], ["Initial purity:", "99 mass %"], ["Final purification:", "Karl Fischer titration;NMR (proton)"], ["Final purity:", "0.0065 water mass %;99 mass %(dried by vacuum heating)"]]}], "dhead": [["Temperature, K", null], ["Pressure, kPa", null], ["Refractive index (Na D-line)", "Liquid"]], "footer": "", "data": [[["288.15"], ["101.325"], ["1.44734", "0.00037"]], [["293.15"], ["101.325"], ["1.44581", "0.00037"]], [["298.15"], ["101.325"], ["1.4444", "0.00037"]], [["303.15"], ["101.325"], ["1.44279", "0.00037"]], [["308.15"], ["101.325"], ["1.44129", "0.00037"]], [["313.15"], ["101.325"], ["1.43983", "0.00037"]], [["318.15"], ["101.325"], ["1.43836", "0.00037"]], [["323.15"], ["101.325"], ["1.43693", "0.00037"]], [["328.15"], ["101.325"], ["1.43546", "0.00037"]], [["333.15"], ["101.325"], ["1.43405", "0.00037"]], [["338.15"], ["101.325"], ["1.43266", "0.00037"]], [["343.15"], ["101.325"], ["1.4312", "0.00037"]], [["348.15"], ["101.325"], ["1.42977", "0.00037"]], [["353.15"], ["101.325"], ["1.42839", "0.00037"]]], "solvent": null, "expmeth": "Standard Abbe refractometry"}