{"components": [{"formula": "C<SUB>18</SUB>H<SUB>35</SUB>BrN<SUB>2</SUB>", "name": "1-methyl-3-tetradecylimidazolium bromide", "mw": "359.40", "idout": "ABRFaF", "sample": [["Source:", "commercial source"], ["Purification:", "NMR (proton)"], ["Purity:", "99 mass %"], ["Purity analysis:", "dried by vacuum heating"]]}, {"sample": [["Source:", "commercial source"], ["Purification:", "stated by supplier"], ["Purity:", "98 mass %"], ["Purity analysis:", "dried by vacuum heating"]], "formula": "C<SUB>8</SUB>H<SUB>20</SUB>BrN", "name": "tetraethylammonium bromide", "mw": "210.16", "idout": "AAoVfw"}, {"name": "water", "formula": "H<SUB>2</SUB>O", "idout": "AADYJk", "mw": "18.02", "sample": [["Source:", "commercial source"], ["Purification:", "estimated by the compiler"], ["Purity:", "99.9 mass %"]]}], "title": "Refraction, surface tension, and speed of sound: Refractive index (Na D-line)", "dhead": [["MolaLity of 1-methyl-3-tetradecylimidazolium bromide, mol/kg", "Liquid"], ["Solvent: MolaLity of tetraethylammonium bromide, mol/kg", "Liquid"], ["Temperature, K", null], ["Pressure, kPa", null], ["Refractive index (Na D-line)", "Liquid"]], "data": [[["0"], ["0"], ["298.15"], ["101"], ["1.3325", "0.0004"]], [["0"], ["0"], ["308.15"], ["101"], ["1.33127", "0.0004"]], [["0"], ["0"], ["318.15"], ["101"], ["1.32978", "0.0004"]], [["0"], ["0.001"], ["298.15"], ["101"], ["1.33252", "0.0004"]], [["0"], ["0.001"], ["308.15"], ["101"], ["1.33129", "0.0004"]], [["0"], ["0.001"], ["318.15"], ["101"], ["1.32979", "0.0004"]], [["0"], ["0.002"], ["298.15"], ["101"], ["1.33256", "0.0004"]], [["0"], ["0.002"], ["308.15"], ["101"], ["1.33131", "0.0004"]], [["0"], ["0.002"], ["318.15"], ["101"], ["1.32981", "0.0004"]], [["0"], ["0.005"], ["298.15"], ["101"], ["1.33265", "0.0004"]], [["0"], ["0.005"], ["308.15"], ["101"], ["1.3314", "0.0004"]], [["0"], ["0.005"], ["318.15"], ["101"], ["1.32989", "0.0004"]], [["0.0002632"], ["0"], ["298.15"], ["101"], ["1.33252", "0.0004"]], [["0.0002632"], ["0"], ["308.15"], ["101"], ["1.33129", "0.0004"]], [["0.0002632"], ["0"], ["318.15"], ["101"], ["1.3298", "0.0004"]], [["0.0002632"], ["0.001"], ["298.15"], ["101"], ["1.33256", "0.0004"]], [["0.0002632"], ["0.001"], ["308.15"], ["101"], ["1.33131", "0.0004"]], [["0.0002632"], ["0.001"], ["318.15"], ["101"], ["1.32981", "0.0004"]], [["0.0002632"], ["0.002"], ["298.15"], ["101"], ["1.33258", "0.0004"]], [["0.0002632"], ["0.002"], ["308.15"], ["101"], ["1.33133", "0.0004"]], [["0.0002632"], ["0.002"], ["318.15"], ["101"], ["1.32983", "0.0004"]], [["0.0002632"], ["0.005"], ["298.15"], ["101"], ["1.33268", "0.0004"]], [["0.0002632"], ["0.005"], ["308.15"], ["101"], ["1.33143", "0.0004"]], [["0.0002632"], ["0.005"], ["318.15"], ["101"], ["1.32992", "0.0004"]], [["0.000526"], ["0"], ["298.15"], ["101"], ["1.33254", "0.0004"]], [["0.000526"], ["0"], ["308.15"], ["101"], ["1.33132", "0.0004"]], [["0.000526"], ["0"], ["318.15"], ["101"], ["1.32982", "0.0004"]], [["0.000526"], ["0.001"], ["298.15"], ["101"], ["1.33257", "0.0004"]], [["0.000526"], ["0.001"], ["308.15"], ["101"], ["1.33133", "0.0004"]], [["0.000526"], ["0.001"], ["318.15"], ["101"], ["1.32983", "0.0004"]], [["0.000526"], ["0.002"], ["298.15"], ["101"], ["1.33259", "0.0004"]], [["0.000526"], ["0.002"], ["308.15"], ["101"], ["1.33134", "0.0004"]], [["0.000526"], ["0.002"], ["318.15"], ["101"], ["1.32984", "0.0004"]], [["0.000526"], ["0.005"], ["298.15"], ["101"], ["1.3327", "0.0004"]], [["0.000526"], ["0.005"], ["308.15"], ["101"], ["1.33145", "0.0004"]], [["0.000526"], ["0.005"], ["318.15"], ["101"], ["1.32994", "0.0004"]], [["0.000789"], ["0"], ["298.15"], ["101"], ["1.33256", "0.0004"]], [["0.000789"], ["0"], ["308.15"], ["101"], ["1.33133", "0.0004"]], [["0.000789"], ["0"], ["318.15"], ["101"], ["1.32983", "0.0004"]], [["0.000789"], ["0.001"], ["298.15"], ["101"], ["1.3326", "0.0004"]], [["0.000789"], ["0.001"], ["308.15"], ["101"], ["1.33135", "0.0004"]], [["0.000789"], ["0.001"], ["318.15"], ["101"], ["1.32985", "0.0004"]], [["0.000789"], ["0.002"], ["298.15"], ["101"], ["1.33262", "0.0004"]], [["0.000789"], ["0.002"], ["308.15"], ["101"], ["1.33137", "0.0004"]], [["0.000789"], ["0.002"], ["318.15"], ["101"], ["1.32987", "0.0004"]], [["0.000789"], ["0.005"], ["298.15"], ["101"], ["1.33272", "0.0004"]], [["0.000789"], ["0.005"], ["308.15"], ["101"], ["1.33147", "0.0004"]], [["0.000789"], ["0.005"], ["318.15"], ["101"], ["1.32996", "0.0004"]], [["0.001053"], ["0"], ["298.15"], ["101"], ["1.33258", "0.00041"]], [["0.001053"], ["0"], ["308.15"], ["101"], ["1.33135", "0.0004"]], [["0.001053"], ["0"], ["318.15"], ["101"], ["1.32985", "0.00041"]], [["0.001053"], ["0.001"], ["298.15"], ["101"], ["1.33262", "0.00041"]], [["0.001053"], ["0.001"], ["308.15"], ["101"], ["1.33137", "0.0004"]], [["0.001053"], ["0.001"], ["318.15"], ["101"], ["1.32987", "0.00041"]], [["0.001053"], ["0.002"], ["298.15"], ["101"], ["1.33264", "0.0004"]], [["0.001053"], ["0.002"], ["308.15"], ["101"], ["1.33139", "0.0004"]], [["0.001053"], ["0.002"], ["318.15"], ["101"], ["1.32989", "0.00041"]], [["0.001053"], ["0.005"], ["298.15"], ["101"], ["1.33274", "0.00041"]], [["0.001053"], ["0.005"], ["308.15"], ["101"], ["1.33149", "0.0004"]], [["0.001053"], ["0.005"], ["318.15"], ["101"], ["1.32998", "0.00041"]], [["0.001316"], ["0"], ["298.15"], ["101"], ["1.3326", "0.00041"]], [["0.001316"], ["0"], ["308.15"], ["101"], ["1.33137", "0.0004"]], [["0.001316"], ["0"], ["318.15"], ["101"], ["1.32987", "0.00041"]], [["0.001316"], ["0.001"], ["298.15"], ["101"], ["1.33265", "0.0004"]], [["0.001316"], ["0.001"], ["308.15"], ["101"], ["1.3314", "0.0004"]], [["0.001316"], ["0.001"], ["318.15"], ["101"], ["1.3299", "0.00042"]], [["0.001316"], ["0.002"], ["298.15"], ["101"], ["1.33267", "0.00041"]], [["0.001316"], ["0.002"], ["308.15"], ["101"], ["1.33142", "0.0004"]], [["0.001316"], ["0.002"], ["318.15"], ["101"], ["1.32992", "0.00044"]], [["0.001316"], ["0.005"], ["298.15"], ["101"], ["1.33276", "0.0004"]], [["0.001316"], ["0.005"], ["308.15"], ["101"], ["1.33152", "0.0004"]], [["0.001316"], ["0.005"], ["318.15"], ["101"], ["1.33", "0.00041"]], [["0.001579"], ["0"], ["298.15"], ["101"], ["1.33262", "0.0004"]], [["0.001579"], ["0"], ["308.15"], ["101"], ["1.33139", "0.0004"]], [["0.001579"], ["0"], ["318.15"], ["101"], ["1.32989", "0.00041"]], [["0.001579"], ["0.001"], ["298.15"], ["101"], ["1.33268", "0.00043"]], [["0.001579"], ["0.001"], ["308.15"], ["101"], ["1.33143", "0.0004"]], [["0.001579"], ["0.001"], ["318.15"], ["101"], ["1.32993", "0.00042"]], [["0.001579"], ["0.002"], ["298.15"], ["101"], ["1.3327", "0.00041"]], [["0.001579"], ["0.002"], ["308.15"], ["101"], ["1.33145", "0.0004"]], [["0.001579"], ["0.002"], ["318.15"], ["101"], ["1.32995", "0.00042"]], [["0.001579"], ["0.005"], ["298.15"], ["101"], ["1.33277", "0.00043"]], [["0.001579"], ["0.005"], ["308.15"], ["101"], ["1.33154", "0.0004"]], [["0.001579"], ["0.005"], ["318.15"], ["101"], ["1.33002", "0.00043"]], [["0.001842"], ["0"], ["298.15"], ["101"], ["1.33264", "0.0004"]], [["0.001842"], ["0"], ["308.15"], ["101"], ["1.3314", "0.0004"]], [["0.001842"], ["0"], ["318.15"], ["101"], ["1.3299", "0.0004"]], [["0.001842"], ["0.001"], ["298.15"], ["101"], ["1.33269", "0.0004"]], [["0.001842"], ["0.001"], ["308.15"], ["101"], ["1.33144", "0.0004"]], [["0.001842"], ["0.001"], ["318.15"], ["101"], ["1.32994", "0.0004"]], [["0.001842"], ["0.002"], ["298.15"], ["101"], ["1.33272", "0.0004"]], [["0.001842"], ["0.002"], ["308.15"], ["101"], ["1.33147", "0.0004"]], [["0.001842"], ["0.002"], ["318.15"], ["101"], ["1.32997", "0.0004"]], [["0.001842"], ["0.005"], ["298.15"], ["101"], ["1.33278", "0.0004"]], [["0.001842"], ["0.005"], ["308.15"], ["101"], ["1.33155", "0.0004"]], [["0.001842"], ["0.005"], ["318.15"], ["101"], ["1.33004", "0.0004"]], [["0.002105"], ["0"], ["298.15"], ["101"], ["1.33266", "0.0004"]], [["0.002105"], ["0"], ["308.15"], ["101"], ["1.33142", "0.0004"]], [["0.002105"], ["0"], ["318.15"], ["101"], ["1.32992", "0.0004"]], [["0.002105"], ["0.001"], ["298.15"], ["101"], ["1.33271", "0.0004"]], [["0.002105"], ["0.001"], ["308.15"], ["101"], ["1.33146", "0.0004"]], [["0.002105"], ["0.001"], ["318.15"], ["101"], ["1.32996", "0.0004"]], [["0.002105"], ["0.002"], ["298.15"], ["101"], ["1.33273", "0.0004"]], [["0.002105"], ["0.002"], ["308.15"], ["101"], ["1.33149", "0.0004"]], [["0.002105"], ["0.002"], ["318.15"], ["101"], ["1.32999", "0.0004"]], [["0.002105"], ["0.005"], ["298.15"], ["101"], ["1.33279", "0.0004"]], [["0.002105"], ["0.005"], ["308.15"], ["101"], ["1.33156", "0.0004"]], [["0.002105"], ["0.005"], ["318.15"], ["101"], ["1.33005", "0.0004"]], [["0.002368"], ["0"], ["298.15"], ["101"], ["1.33268", "0.0004"]], [["0.002368"], ["0"], ["308.15"], ["101"], ["1.33144", "0.0004"]], [["0.002368"], ["0"], ["318.15"], ["101"], ["1.32994", "0.0004"]], [["0.002368"], ["0.001"], ["298.15"], ["101"], ["1.33272", "0.0004"]], [["0.002368"], ["0.001"], ["308.15"], ["101"], ["1.33148", "0.0004"]], [["0.002368"], ["0.001"], ["318.15"], ["101"], ["1.32998", "0.0004"]], [["0.002368"], ["0.002"], ["298.15"], ["101"], ["1.33274", "0.0004"]], [["0.002368"], ["0.002"], ["308.15"], ["101"], ["1.3315", "0.0004"]], [["0.002368"], ["0.002"], ["318.15"], ["101"], ["1.33001", "0.0004"]], [["0.002368"], ["0.005"], ["298.15"], ["101"], ["1.3328", "0.0004"]], [["0.002368"], ["0.005"], ["308.15"], ["101"], ["1.33157", "0.0004"]], [["0.002368"], ["0.005"], ["318.15"], ["101"], ["1.33006", "0.0004"]], [["0.00263"], ["0"], ["298.15"], ["101"], ["1.3327", "0.0004"]], [["0.00263"], ["0"], ["308.15"], ["101"], ["1.33146", "0.0004"]], [["0.00263"], ["0"], ["318.15"], ["101"], ["1.32996", "0.0004"]], [["0.00263"], ["0.001"], ["298.15"], ["101"], ["1.33273", "0.0004"]], [["0.00263"], ["0.001"], ["308.15"], ["101"], ["1.33149", "0.0004"]], [["0.00263"], ["0.001"], ["318.15"], ["101"], ["1.33", "0.00042"]], [["0.00263"], ["0.002"], ["298.15"], ["101"], ["1.33275", "0.00041"]], [["0.00263"], ["0.002"], ["308.15"], ["101"], ["1.33151", "0.0004"]], [["0.00263"], ["0.002"], ["318.15"], ["101"], ["1.33002", "0.00041"]], [["0.00263"], ["0.005"], ["298.15"], ["101"], ["1.33281", "0.00042"]], [["0.00263"], ["0.005"], ["308.15"], ["101"], ["1.33158", "0.0004"]], [["0.00263"], ["0.005"], ["318.15"], ["101"], ["1.33007", "0.00041"]], [["0.00289"], ["0"], ["298.15"], ["101"], ["1.33271", "0.0004"]], [["0.00289"], ["0"], ["308.15"], ["101"], ["1.33148", "0.0004"]], [["0.00289"], ["0"], ["318.15"], ["101"], ["1.32998", "0.0004"]], [["0.00289"], ["0.001"], ["298.15"], ["101"], ["1.33274", "0.0004"]], [["0.00289"], ["0.001"], ["308.15"], ["101"], ["1.3315", "0.0004"]], [["0.00289"], ["0.001"], ["318.15"], ["101"], ["1.33001", "0.0004"]], [["0.00289"], ["0.002"], ["298.15"], ["101"], ["1.33276", "0.0004"]], [["0.00289"], ["0.002"], ["308.15"], ["101"], ["1.33152", "0.0004"]], [["0.00289"], ["0.002"], ["318.15"], ["101"], ["1.33003", "0.0004"]], [["0.00289"], ["0.005"], ["298.15"], ["101"], ["1.33282", "0.0004"]], [["0.00289"], ["0.005"], ["308.15"], ["101"], ["1.33159", "0.0004"]], [["0.00289"], ["0.005"], ["318.15"], ["101"], ["1.33008", "0.0004"]], [["0.00316"], ["0"], ["298.15"], ["101"], ["1.33272", "0.0004"]], [["0.00316"], ["0"], ["308.15"], ["101"], ["1.33149", "0.0004"]], [["0.00316"], ["0"], ["318.15"], ["101"], ["1.32999", "0.0004"]], [["0.00316"], ["0.001"], ["298.15"], ["101"], ["1.33275", "0.0004"]], [["0.00316"], ["0.001"], ["308.15"], ["101"], ["1.33151", "0.0004"]], [["0.00316"], ["0.001"], ["318.15"], ["101"], ["1.33002", "0.0004"]], [["0.00316"], ["0.002"], ["298.15"], ["101"], ["1.33277", "0.0004"]], [["0.00316"], ["0.002"], ["308.15"], ["101"], ["1.33153", "0.0004"]], [["0.00316"], ["0.002"], ["318.15"], ["101"], ["1.33004", "0.0004"]], [["0.00316"], ["0.005"], ["298.15"], ["101"], ["1.33284", "0.0004"]], [["0.00316"], ["0.005"], ["308.15"], ["101"], ["1.3316", "0.0004"]], [["0.00316"], ["0.005"], ["318.15"], ["101"], ["1.33009", "0.0004"]], [["0.00342"], ["0"], ["298.15"], ["101"], ["1.33273", "0.0004"]], [["0.00342"], ["0"], ["308.15"], ["101"], ["1.3315", "0.0004"]], [["0.00342"], ["0"], ["318.15"], ["101"], ["1.33", "0.00041"]], [["0.00342"], ["0.001"], ["298.15"], ["101"], ["1.33276", "0.00041"]], [["0.00342"], ["0.001"], ["308.15"], ["101"], ["1.33152", "0.0004"]], [["0.00342"], ["0.001"], ["318.15"], ["101"], ["1.33003", "0.00043"]], [["0.00342"], ["0.002"], ["298.15"], ["101"], ["1.33278", "0.00041"]], [["0.00342"], ["0.002"], ["308.15"], ["101"], ["1.33154", "0.0004"]], [["0.00342"], ["0.002"], ["318.15"], ["101"], ["1.33005", "0.00042"]], [["0.00342"], ["0.005"], ["298.15"], ["101"], ["1.33285", "0.00042"]], [["0.00342"], ["0.005"], ["308.15"], ["101"], ["1.33161", "0.0004"]], [["0.00342"], ["0.005"], ["318.15"], ["101"], ["1.3301", "0.00042"]], [["0.00368"], ["0"], ["298.15"], ["101"], ["1.33274", "0.00041"]], [["0.00368"], ["0"], ["308.15"], ["101"], ["1.33152", "0.0004"]], [["0.00368"], ["0"], ["318.15"], ["101"], ["1.33001", "0.00042"]], [["0.00368"], ["0.001"], ["298.15"], ["101"], ["1.33277", "0.00041"]], [["0.00368"], ["0.001"], ["308.15"], ["101"], ["1.33153", "0.0004"]], [["0.00368"], ["0.001"], ["318.15"], ["101"], ["1.33004", "0.00041"]], [["0.00368"], ["0.002"], ["298.15"], ["101"], ["1.33279", "0.00041"]], [["0.00368"], ["0.002"], ["308.15"], ["101"], ["1.33155", "0.0004"]], [["0.00368"], ["0.002"], ["318.15"], ["101"], ["1.33006", "0.00041"]], [["0.00368"], ["0.005"], ["298.15"], ["101"], ["1.33286", "0.00041"]], [["0.00368"], ["0.005"], ["308.15"], ["101"], ["1.33162", "0.0004"]], [["0.00368"], ["0.005"], ["318.15"], ["101"], ["1.33011", "0.00041"]], [["0.00395"], ["0"], ["298.15"], ["101"], ["1.33275", "0.0004"]], [["0.00395"], ["0"], ["308.15"], ["101"], ["1.33153", "0.0004"]], [["0.00395"], ["0"], ["318.15"], ["101"], ["1.33003", "0.0004"]], [["0.00395"], ["0.001"], ["298.15"], ["101"], ["1.33278", "0.0004"]], [["0.00395"], ["0.001"], ["308.15"], ["101"], ["1.33154", "0.0004"]], [["0.00395"], ["0.001"], ["318.15"], ["101"], ["1.33005", "0.00041"]], [["0.00395"], ["0.002"], ["298.15"], ["101"], ["1.3328", "0.0004"]], [["0.00395"], ["0.002"], ["308.15"], ["101"], ["1.33156", "0.0004"]], [["0.00395"], ["0.002"], ["318.15"], ["101"], ["1.33007", "0.00041"]], [["0.00395"], ["0.005"], ["298.15"], ["101"], ["1.33287", "0.0004"]], [["0.00395"], ["0.005"], ["308.15"], ["101"], ["1.33163", "0.0004"]], [["0.00395"], ["0.005"], ["318.15"], ["101"], ["1.33012", "0.00041"]], [["0.00421"], ["0"], ["298.15"], ["101"], ["1.33276", "0.0004"]], [["0.00421"], ["0"], ["308.15"], ["101"], ["1.33154", "0.0004"]], [["0.00421"], ["0"], ["318.15"], ["101"], ["1.33005", "0.0004"]], [["0.00421"], ["0.001"], ["298.15"], ["101"], ["1.33279", "0.0004"]], [["0.00421"], ["0.001"], ["308.15"], ["101"], ["1.33155", "0.0004"]], [["0.00421"], ["0.001"], ["318.15"], ["101"], ["1.33006", "0.0004"]], [["0.00421"], ["0.002"], ["298.15"], ["101"], ["1.33281", "0.0004"]], [["0.00421"], ["0.002"], ["308.15"], ["101"], ["1.33157", "0.0004"]], [["0.00421"], ["0.002"], ["318.15"], ["101"], ["1.33008", "0.0004"]], [["0.00421"], ["0.005"], ["298.15"], ["101"], ["1.33288", "0.0004"]], [["0.00421"], ["0.005"], ["308.15"], ["101"], ["1.33164", "0.0004"]], [["0.00421"], ["0.005"], ["318.15"], ["101"], ["1.33013", "0.0004"]], [["0.00447"], ["0"], ["298.15"], ["101"], ["1.33278", "0.0004"]], [["0.00447"], ["0"], ["308.15"], ["101"], ["1.33155", "0.00041"]], [["0.00447"], ["0"], ["318.15"], ["101"], ["1.33006", "0.0004"]], [["0.00447"], ["0.001"], ["298.15"], ["101"], ["1.33281", "0.0004"]], [["0.00447"], ["0.001"], ["308.15"], ["101"], ["1.33156", "0.00041"]], [["0.00447"], ["0.001"], ["318.15"], ["101"], ["1.33007", "0.0004"]], [["0.00447"], ["0.002"], ["298.15"], ["101"], ["1.33282", "0.0004"]], [["0.00447"], ["0.002"], ["308.15"], ["101"], ["1.33158", "0.00041"]], [["0.00447"], ["0.002"], ["318.15"], ["101"], ["1.33009", "0.0004"]], [["0.00447"], ["0.005"], ["298.15"], ["101"], ["1.33289", "0.0004"]], [["0.00447"], ["0.005"], ["308.15"], ["101"], ["1.33165", "0.00041"]], [["0.00447"], ["0.005"], ["318.15"], ["101"], ["1.33014", "0.0004"]]], "solvent": "tetraethylammonium bromide + water", "footer": "", "expmeth": "Standard Abbe refractometry", "ref": {"full": "Kumar, H.; Kaur, G.; Priya (2020) J. Mol. Liq. 313, 113431.", "title": "Influence of tetra ethyl ammonium bromide (C2H5)4NBr on the aggregation behavior of surface active ionic liquid 1-tetradecyl-3-methylimidazolium bromide [C14mim][Br]"}, "constr": [], "phases": ["Liquid"]}