{"title": "Refraction, surface tension, and speed of sound: Refractive index (Na D-line)", "components": [{"sample": [["Source:", "commercial source"], ["Purification:", "estimated by the compiler"], ["Purity:", "99 mol %(fractional distillation)"]], "mw": "18.02", "idout": "AADYJk", "formula": "H<SUB>2</SUB>O", "name": "water"}, {"sample": [["Source:", "commercial source"], ["Initial purification:", "stated by supplier"], ["Initial purity:", "94 mass %"], ["Final purification:", "NMR (proton);Karl Fischer titration"], ["Final purity:", "99 mass %;0.04 water mass %(chemical reagent treatment;dried by vacuum heating)"]], "idout": "ABvtRE", "mw": "519.32", "name": "trihexyl(tetradecyl)phosphonium chloride", "formula": "C<SUB>32</SUB>H<SUB>68</SUB>ClP"}], "dhead": [["Temperature, K", null], ["Pressure, kPa", null], ["Weight fraction of water", "Liquid"], ["Refractive index (Na D-line)", "Liquid"]], "footer": "", "data": [[["298.15"], ["101"], ["0.1334"], ["1.46283", "0.00037"]], [["303.15"], ["101"], ["0.1334"], ["1.46133", "0.00037"]], [["308.15"], ["101"], ["0.1334"], ["1.45953", "0.00037"]], [["313.15"], ["101"], ["0.1334"], ["1.45768", "0.00037"]], [["318.15"], ["101"], ["0.1334"], ["1.45595", "0.00037"]], [["323.15"], ["101"], ["0.1334"], ["1.45425", "0.00037"]], [["328.15"], ["101"], ["0.1334"], ["1.45266", "0.00037"]], [["333.15"], ["101"], ["0.1334"], ["1.45124", "0.00037"]], [["338.15"], ["101"], ["0.1334"], ["1.44998", "0.00037"]], [["343.15"], ["101"], ["0.1334"], ["1.44892", "0.00037"]], [["348.15"], ["101"], ["0.1334"], ["1.44798", "0.00037"]], [["353.15"], ["101"], ["0.1334"], ["1.4471", "0.00037"]]], "solvent": null, "expmeth": "Standard Abbe refractometry", "constr": [], "ref": {"full": "Almeida, H. F. D.; Lopes-da-Silva, J. A.; Freire, M. G.; Coutinho, J. A. P. (2013) J. Chem. Thermodyn. 57, 372-379.", "title": "Surface tension and refractive index of pure and water-saturated  tetradecyltrihexylphosphonium-based ionic liquids"}, "phases": ["Liquid"]}