{"components": [{"sample": [["Source:", "commercial source"], ["Purification:", "stated by supplier"], ["Purity:", "99 mass %"]], "formula": "C<SUB>42</SUB>H<SUB>70</SUB>O<SUB>35</SUB>", "name": ".beta.-cyclodextrin", "idout": "AEKNbL", "mw": "1134.99"}, {"formula": "C<SUB>7</SUB>H<SUB>16</SUB>BrN", "name": "1-ethyl-1-methylpyrrolidinium bromide", "idout": "AAlRMn", "mw": "194.12", "sample": [["Source:", "commercial source"], ["Purification:", "stated by supplier"], ["Purity:", "99 mass %"]]}, {"sample": [["Source:", "commercial source"], ["Purification:", "estimated by the compiler"], ["Purity:", "99.5 mass %"]], "mw": "18.02", "idout": "AADYJk", "name": "water", "formula": "H<SUB>2</SUB>O"}], "title": "Refraction, surface tension, and speed of sound: Refractive index (Na D-line)", "dhead": [["Solvent: Weight fraction of .beta.-cyclodextrin", "Liquid"], ["MolaLity of 1-ethyl-1-methylpyrrolidinium bromide, mol/kg", "Liquid"], ["Pressure, kPa", null], ["Temperature, K", null], ["Refractive index (Na D-line)", "Liquid"]], "data": [[["0.001"], ["0.01"], ["100"], ["298.15"], ["1.3333", "0.0005"]], [["0.001"], ["0.025"], ["100"], ["298.15"], ["1.3339", "0.0005"]], [["0.001"], ["0.04"], ["100"], ["298.15"], ["1.3343", "0.0005"]], [["0.001"], ["0.055"], ["100"], ["298.15"], ["1.3349", "0.0005"]], [["0.001"], ["0.07"], ["100"], ["298.15"], ["1.3352", "0.0005"]], [["0.001"], ["0.085"], ["100"], ["298.15"], ["1.3355", "0.0005"]], [["0.003"], ["0.01"], ["100"], ["298.15"], ["1.3334", "0.0005"]], [["0.003"], ["0.025"], ["100"], ["298.15"], ["1.3338", "0.0005"]], [["0.003"], ["0.04"], ["100"], ["298.15"], ["1.3342", "0.0005"]], [["0.003"], ["0.055"], ["100"], ["298.15"], ["1.3347", "0.0005"]], [["0.003"], ["0.07"], ["100"], ["298.15"], ["1.335", "0.0005"]], [["0.003"], ["0.085"], ["100"], ["298.15"], ["1.3353", "0.0005"]], [["0.005"], ["0.01"], ["100"], ["298.15"], ["1.3332", "0.0005"]], [["0.005"], ["0.025"], ["100"], ["298.15"], ["1.3336", "0.0005"]], [["0.005"], ["0.04"], ["100"], ["298.15"], ["1.3339", "0.0005"]], [["0.005"], ["0.055"], ["100"], ["298.15"], ["1.3343", "0.0005"]], [["0.005"], ["0.07"], ["100"], ["298.15"], ["1.3347", "0.0005"]], [["0.005"], ["0.085"], ["100"], ["298.15"], ["1.3356", "0.0005"]]], "solvent": ".beta.-cyclodextrin + water", "footer": "", "expmeth": "Standard Abbe refractometry", "ref": {"title": "Evidences for Inclusion and Encapsulation of an Ionic liquid with .beta.-CD and 18-C-6 in Aqueous Environments by Physicochemical Investigation", "full": "Das, K.; Datta, B.; Rajbanshi, B.; Roy, M. N. (2018) J. Phys. Chem. B 122(5), 1679-1694."}, "constr": [], "phases": ["Liquid"]}