{"constr": [], "ref": {"full": "Seki, S.; Tsuzuki, S.; Hayamizu, K.; Umebayashi, Y.; Serizawa, N.; Takei, K.; Miyashiro, H. (2012) J. Chem. Eng. Data 57(8), 2211-2216.", "title": "Comprehensive Refractive Index Property for Room-Temperature Ionic Liquids"}, "phases": ["Liquid"], "title": "Refraction, surface tension, and speed of sound: Refractive index (Na D-line)", "components": [{"name": "1-methyl-1-propylpyrrolidinium bis(fluorosulfonyl)amide", "formula": "C<SUB>8</SUB>H<SUB>18</SUB>F<SUB>2</SUB>N<SUB>2</SUB>O<SUB>4</SUB>S<SUB>2</SUB>", "idout": "ABHPAi", "mw": "308.36", "sample": [["Source:", "commercial source"], ["Initial purification:", "stated by supplier"], ["Initial purity:", "98 mass %"], ["Final purification:", "Karl Fischer titration"], ["Final purity:", "0.01 water mass %(dried by vacuum heating)"]]}], "dhead": [["Temperature, K", null], ["Pressure, kPa", null], ["Refractive index (Na D-line)", "Liquid"]], "footer": "", "data": [[["283.15"], ["101.325"], ["1.44659", "0.00063"]], [["288.15"], ["101.325"], ["1.44522", "0.00063"]], [["293.15"], ["101.325"], ["1.44385", "0.00063"]], [["298.15"], ["101.325"], ["1.4425", "0.00063"]], [["303.15"], ["101.325"], ["1.44114", "0.00063"]], [["308.15"], ["101.325"], ["1.43977", "0.00063"]], [["313.15"], ["101.325"], ["1.43846", "0.00063"]], [["318.15"], ["101.325"], ["1.4371", "0.00063"]], [["323.15"], ["101.325"], ["1.43577", "0.00062"]], [["328.15"], ["101.325"], ["1.43446", "0.00062"]], [["333.15"], ["101.325"], ["1.43312", "0.00062"]], [["338.15"], ["101.325"], ["1.43182", "0.00062"]], [["343.15"], ["101.325"], ["1.43052", "0.00062"]], [["348.15"], ["101.325"], ["1.42919", "0.00062"]], [["353.15"], ["101.325"], ["1.42792", "0.00062"]]], "solvent": null, "expmeth": "Standard Abbe refractometry"}