{"title": "Refraction, surface tension, and speed of sound: Refractive index (Na D-line)", "components": [{"sample": [["Source:", "commercial source"], ["Purification:", "estimated by the compiler"], ["Purity:", "99.8 mass %"]], "name": "water", "formula": "H<SUB>2</SUB>O", "idout": "AADYJk", "mw": "18.02"}, {"formula": "C<SUB>10</SUB>H<SUB>12</SUB>F<SUB>6</SUB>N<SUB>2</SUB>O<SUB>4</SUB>S<SUB>2</SUB>", "name": "1-ethyl-2-methylpyridinium bis((trifluoromethyl)sulfonyl)amide", "mw": "402.33", "idout": "ABZTch", "sample": [["Source:", "commercial source"], ["Initial purification:", "stated by supplier"], ["Initial purity:", "99 mass %"], ["Final purification:", "Karl Fischer titration;ion chromatography"], ["Final purity:", "0.0035 water mass %;0.01 halide impurity mass %(dried by vacuum heating)"]]}], "dhead": [["Mole fraction of water", "Liquid"], ["Temperature, K", null], ["Pressure, kPa", null], ["Refractive index (Na D-line)", "Liquid"]], "footer": "", "data": [[["0.124"], ["298.15"], ["101.3"], ["1.44635", "0.00039"]], [["0.124"], ["303.15"], ["101.3"], ["1.44489", "0.00038"]], [["0.124"], ["308.15"], ["101.3"], ["1.44343", "0.00038"]], [["0.124"], ["313.15"], ["101.3"], ["1.44195", "0.00039"]], [["0.124"], ["318.15"], ["101.3"], ["1.4405", "0.00039"]], [["0.124"], ["323.15"], ["101.3"], ["1.43906", "0.00039"]], [["0.124"], ["328.15"], ["101.3"], ["1.43777", "0.00038"]], [["0.124"], ["333.15"], ["101.3"], ["1.43633", "0.00038"]], [["0.124"], ["338.15"], ["101.3"], ["1.43494", "0.00038"]], [["0.124"], ["343.15"], ["101.3"], ["1.43355", "0.00037"]], [["0.172"], ["298.15"], ["101.3"], ["1.44579", "0.00038"]], [["0.172"], ["303.15"], ["101.3"], ["1.44442", "0.00039"]], [["0.172"], ["308.15"], ["101.3"], ["1.44289", "0.00039"]], [["0.172"], ["313.15"], ["101.3"], ["1.44136", "0.00038"]], [["0.172"], ["318.15"], ["101.3"], ["1.43988", "0.00038"]], [["0.172"], ["323.15"], ["101.3"], ["1.43853", "0.00037"]], [["0.172"], ["328.15"], ["101.3"], ["1.4372", "0.00037"]], [["0.172"], ["333.15"], ["101.3"], ["1.43586", "0.00037"]], [["0.172"], ["338.15"], ["101.3"], ["1.43447", "0.00036"]], [["0.172"], ["343.15"], ["101.3"], ["1.43315", "0.00036"]], [["0.256"], ["298.15"], ["101.3"], ["1.44479", "0.00038"]], [["0.256"], ["303.15"], ["101.3"], ["1.44323", "0.00039"]], [["0.256"], ["308.15"], ["101.3"], ["1.44178", "0.00038"]], [["0.256"], ["313.15"], ["101.3"], ["1.44044", "0.00037"]], [["0.256"], ["318.15"], ["101.3"], ["1.43914", "0.00036"]], [["0.256"], ["323.15"], ["101.3"], ["1.43787", "0.00036"]], [["0.256"], ["328.15"], ["101.3"], ["1.43662", "0.00036"]], [["0.256"], ["333.15"], ["101.3"], ["1.43532", "0.00036"]], [["0.256"], ["338.15"], ["101.3"], ["1.43398", "0.00035"]], [["0.256"], ["343.15"], ["101.3"], ["1.43279", "0.00035"]]], "solvent": null, "expmeth": "Standard Abbe refractometry", "constr": [], "ref": {"full": "Gonzalez, E. J.; Gonzalez, B.; Macedo, E. A. (2015) J. Chem. Thermodyn. 86, 96-105.", "title": "Effect of the relative humidity and isomeric structure on the physical properties of pyridinium based-ionic liquids"}, "phases": ["Liquid"]}