{"phases": ["Liquid"], "ref": {"title": "Density and refractive index measurements of 1-ethyl-3-methylimidazolium-based ionic liquids", "full": "Soriano, A. N.; Doma Jr., B. T.; Li, M.-H. (2010) J. Taiwan Inst. Chem. Eng. 41, 115-121."}, "constr": [], "expmeth": "Standard Abbe refractometry", "footer": "", "data": [[["293.2"], ["101.325"], ["1.4338", "0.0008"]], [["298.2"], ["101.325"], ["1.4324", "0.0008"]], [["299.2"], ["101.325"], ["1.4321", "0.0008"]], [["300.2"], ["101.325"], ["1.4319", "0.0008"]], [["301.2"], ["101.325"], ["1.4316", "0.0008"]], [["302.2"], ["101.325"], ["1.4313", "0.0008"]], [["303.2"], ["101.325"], ["1.4311", "0.0008"]], [["304.2"], ["101.325"], ["1.4308", "0.0008"]], [["305.2"], ["101.325"], ["1.4306", "0.0008"]], [["306.2"], ["101.325"], ["1.4303", "0.0008"]], [["307.2"], ["101.325"], ["1.43", "0.0008"]], [["308.2"], ["101.325"], ["1.4298", "0.0008"]]], "solvent": null, "dhead": [["Temperature, K", null], ["Pressure, kPa", null], ["Refractive index (Na D-line)", "Liquid"]], "title": "Refraction, surface tension, and speed of sound: Refractive index (Na D-line)", "components": [{"name": "1-ethyl-3-methylimidazolium trifluoromethanesulfonate", "formula": "C<SUB>7</SUB>H<SUB>11</SUB>F<SUB>3</SUB>N<SUB>2</SUB>O<SUB>3</SUB>S", "idout": "AAyCVz", "mw": "260.23", "sample": [["Source:", "commercial source"], ["Initial purification:", "stated by supplier"], ["Initial purity:", "98 mass %"], ["Final purification:", "not known"], ["Final purity:", "0.7 water mass %(dried in a desiccator)"]]}]}