{"components": [{"idout": "AADYJk", "mw": "18.02", "name": "water", "formula": "H<SUB>2</SUB>O", "sample": [["Source:", "commercial source"], ["Purification:", "estimated by the compiler"], ["Purity:", "99.9 mass %"]]}, {"mw": "142.16", "idout": "AAbRuq", "formula": "C<SUB>6</SUB>H<SUB>10</SUB>N<SUB>2</SUB>O<SUB>2</SUB>", "name": "1-methylimidazolium acetate", "sample": [["Source:", "synthesized by the authors"], ["Purification:", "Karl Fischer titration;NMR (proton)"], ["Purity:", "0.02 water mass %;99 mass %(dried by vacuum heating)"]]}], "title": "Refraction, surface tension, and speed of sound: Refractive index (Na D-line)", "dhead": [["Mole fraction of 1-methylimidazolium acetate", "Liquid"], ["Pressure, kPa", null], ["Temperature, K", null], ["Refractive index (Na D-line)", "Liquid"]], "data": [[["0"], ["101"], ["298.15"], ["1.3329", "0.001"]], [["0.002"], ["101"], ["298.15"], ["1.3355", "0.0011"]], [["0.0051"], ["101"], ["298.15"], ["1.3401", "0.0011"]], [["0.0071"], ["101"], ["298.15"], ["1.3417", "0.0011"]], [["0.01"], ["101"], ["298.15"], ["1.3445", "0.0011"]], [["0.0151"], ["101"], ["298.15"], ["1.3492", "0.001"]], [["0.02"], ["101"], ["298.15"], ["1.3511", "0.001"]], [["0.0498"], ["101"], ["298.15"], ["1.3789", "0.0011"]], [["0.0748"], ["101"], ["298.15"], ["1.3952", "0.001"]], [["0.0999"], ["101"], ["298.15"], ["1.4071", "0.001"]], [["0.1486"], ["101"], ["298.15"], ["1.4241", "0.001"]], [["0.1935"], ["101"], ["298.15"], ["1.4339", "0.001"]], [["0.3485"], ["101"], ["298.15"], ["1.4481", "0.001"]], [["0.4974"], ["101"], ["298.15"], ["1.4531", "0.001"]], [["0.7437"], ["101"], ["298.15"], ["1.4575", "0.0011"]], [["0.8908"], ["101"], ["298.15"], ["1.4586", "0.0011"]], [["1"], ["101"], ["298.15"], ["1.4592", "0.0011"]]], "solvent": null, "footer": "", "expmeth": "Standard Abbe refractometry", "constr": [], "ref": {"title": "Physicochemical properties of aqueous solution of 1-methylimidazolium acetate ionic liquid at several temperatures", "full": "Chen, J.; Chen, L.; Lu, Y.; Xu, Y. (2014) J. Mol. Liq. 197, 374-380."}, "phases": ["Liquid"]}