{"dhead": [["Temperature, K", null], ["Pressure, kPa", null], ["Refractive index (Na D-line)", "Liquid"]], "components": [{"sample": [["Source:", "commercial source"], ["Initial purification:", "stated by supplier"], ["Initial purity:", "99.9 mass %"], ["Final purification:", "not known"], ["Final purity:", "0.05 water mass %(dried in a desiccator)"]], "mw": "177.21", "idout": "AAiEIE", "formula": "C<SUB>8</SUB>H<SUB>11</SUB>N<SUB>5</SUB>", "name": "1-ethyl-3-methylimidazolium dicyanamide"}], "title": "Refraction, surface tension, and speed of sound: Refractive index (Na D-line)", "expmeth": "Standard Abbe refractometry", "data": [[["293.2"], ["101.325"], ["1.5151", "0.0007"]], [["298.2"], ["101.325"], ["1.5134", "0.0007"]], [["299.2"], ["101.325"], ["1.5131", "0.0007"]], [["300.2"], ["101.325"], ["1.5127", "0.0007"]], [["301.2"], ["101.325"], ["1.5124", "0.0007"]], [["302.2"], ["101.325"], ["1.512", "0.0007"]], [["303.2"], ["101.325"], ["1.5117", "0.0007"]], [["304.2"], ["101.325"], ["1.5114", "0.0007"]], [["305.2"], ["101.325"], ["1.511", "0.0007"]], [["306.2"], ["101.325"], ["1.5107", "0.0007"]], [["307.2"], ["101.325"], ["1.5103", "0.0007"]], [["308.2"], ["101.325"], ["1.51", "0.0007"]]], "solvent": null, "footer": "", "ref": {"full": "Soriano, A. N.; Doma Jr., B. T.; Li, M.-H. (2010) J. Taiwan Inst. Chem. Eng. 41, 115-121.", "title": "Density and refractive index measurements of 1-ethyl-3-methylimidazolium-based ionic liquids"}, "constr": [], "phases": ["Liquid"]}