{"title": "Refraction, surface tension, and speed of sound: Refractive index (Na D-line)", "components": [{"name": "butyltrimethylammonium bis(trifluoromethylsulfonyl)imide", "formula": "C<SUB>9</SUB>H<SUB>18</SUB>F<SUB>6</SUB>N<SUB>2</SUB>O<SUB>4</SUB>S<SUB>2</SUB>", "idout": "ABYLZx", "mw": "396.36", "sample": [["Source:", "commercial source"], ["Initial purification:", "stated by supplier"], ["Initial purity:", "99 mass %"], ["Final purification:", "Karl Fischer titration"], ["Final purity:", "0.0253 water mass %(dried by vacuum heating)"]]}], "dhead": [["Temperature, K", null], ["Pressure, kPa", null], ["Refractive index (Na D-line)", "Liquid"]], "footer": "", "data": [[["283.15"], ["101.325"], ["1.4122", "0.00037"]], [["288.15"], ["101.325"], ["1.41083", "0.00037"]], [["293.15"], ["101.325"], ["1.40945", "0.00037"]], [["298.15"], ["101.325"], ["1.40818", "0.00037"]], [["303.15"], ["101.325"], ["1.40676", "0.00037"]], [["308.15"], ["101.325"], ["1.40538", "0.00037"]], [["313.15"], ["101.325"], ["1.40405", "0.00037"]], [["318.15"], ["101.325"], ["1.40273", "0.00037"]], [["323.15"], ["101.325"], ["1.40142", "0.00037"]], [["328.15"], ["101.325"], ["1.40006", "0.00037"]], [["333.15"], ["101.325"], ["1.39877", "0.00037"]], [["338.15"], ["101.325"], ["1.39747", "0.00037"]], [["343.15"], ["101.325"], ["1.39616", "0.00037"]], [["348.15"], ["101.325"], ["1.39486", "0.00037"]], [["353.15"], ["101.325"], ["1.39358", "0.00037"]]], "solvent": null, "expmeth": "Standard Abbe refractometry", "ref": {"full": "Bhattacharjee, A.; Luis, A.; Lopes-da-Silva, J. A.; Freire, M. G.; Carvalho, P. J.; Coutinho, J. A. P. (2014) Fluid Phase Equilib. 381, 36-45.", "title": "Thermophysical properties of sulfonium- and ammonium-based ionic liquids"}, "constr": [], "phases": ["Liquid"]}