{"dhead": [["Mole fraction of 1-butyl-3-methylimidazolium hexafluorophosphate", "Liquid"], ["Temperature, K", null], ["Pressure, kPa", null], ["Wavelength, A", "Liquid"], ["Refractive index", "Liquid"]], "components": [{"name": "1-butyl-3-methylimidazolium hexafluorophosphate", "formula": "C<SUB>8</SUB>H<SUB>15</SUB>F<SUB>6</SUB>N<SUB>2</SUB>P", "idout": "ABChJv", "mw": "284.19", "sample": [["Source:", "commercial source"], ["Initial purification:", "stated by supplier"], ["Initial purity:", "99 mass %"], ["Final purification:", "Karl Fischer titration"], ["Final purity:", "0.0200 water mass %(dried in a desiccator;dried by vacuum heating)"]]}, {"sample": [["Source:", "commercial source"], ["Initial purification:", "stated by supplier"], ["Initial purity:", "99.8 mass %"], ["Final purification:", "Karl Fischer titration"], ["Final purity:", "0.0060 water mass %(molecular sieve treatment)"]], "idout": "AAIsrh", "mw": "46.07", "name": "ethanol", "formula": "C<SUB>2</SUB>H<SUB>6</SUB>O"}], "title": "Refraction, surface tension, and speed of sound: Refractive index", "expmeth": "minimum deviation method", "data": [[["0"], ["315.241"], ["108"], ["632.8"], ["1.3509", "0.0002"]], [["0"], ["317.21"], ["108"], ["632.8"], ["1.3501", "0.0002"]], [["0"], ["319.256"], ["108"], ["632.8"], ["1.3492", "0.0002"]], [["0"], ["321.315"], ["108"], ["632.8"], ["1.3483", "0.0002"]], [["0"], ["323.304"], ["108"], ["632.8"], ["1.3474", "0.0002"]], [["0"], ["325.389"], ["108"], ["632.8"], ["1.3465", "0.0002"]], [["0.1"], ["325.417"], ["108"], ["632.8"], ["1.3647", "0.0004"]], [["0.1"], ["326.639"], ["108"], ["632.8"], ["1.3643", "0.0003"]], [["0.1"], ["327.861"], ["108"], ["632.8"], ["1.3639", "0.0003"]], [["0.1"], ["328.912"], ["108"], ["632.8"], ["1.3636", "0.0003"]], [["0.1"], ["329.441"], ["108"], ["632.8"], ["1.3634", "0.0003"]], [["0.2"], ["323.584"], ["108"], ["632.8"], ["1.3759", "0.0003"]], [["0.2"], ["324.555"], ["108"], ["632.8"], ["1.3756", "0.0003"]], [["0.2"], ["325.63"], ["108"], ["632.8"], ["1.3753", "0.0003"]], [["0.2"], ["327.045"], ["108"], ["632.8"], ["1.3748", "0.0003"]], [["0.2"], ["328.273"], ["108"], ["632.8"], ["1.3744", "0.0003"]], [["0.3"], ["320.244"], ["108"], ["632.8"], ["1.3841", "0.0002"]], [["0.3"], ["321.273"], ["108"], ["632.8"], ["1.3838", "0.0003"]], [["0.3"], ["322.243"], ["108"], ["632.8"], ["1.3835", "0.0002"]], [["0.3"], ["323.254"], ["108"], ["632.8"], ["1.3832", "0.0002"]], [["0.3"], ["324.257"], ["108"], ["632.8"], ["1.3828", "0.0002"]], [["0.3"], ["325.313"], ["108"], ["632.8"], ["1.3825", "0.0002"]], [["0.3"], ["326.514"], ["108"], ["632.8"], ["1.3822", "0.0002"]], [["0.3"], ["327.748"], ["108"], ["632.8"], ["1.3817", "0.0002"]], [["0.4"], ["320.239"], ["108"], ["632.8"], ["1.3889", "0.0002"]], [["0.4"], ["321.294"], ["108"], ["632.8"], ["1.3886", "0.0002"]], [["0.4"], ["322.285"], ["108"], ["632.8"], ["1.3884", "0.0002"]], [["0.4"], ["323.297"], ["108"], ["632.8"], ["1.388", "0.0002"]], [["0.4"], ["324.277"], ["108"], ["632.8"], ["1.3877", "0.0002"]], [["0.4"], ["325.277"], ["108"], ["632.8"], ["1.3874", "0.0002"]], [["0.4"], ["326.482"], ["108"], ["632.8"], ["1.387", "0.0002"]], [["0.4"], ["327.636"], ["108"], ["632.8"], ["1.3867", "0.0002"]], [["0.5"], ["320.271"], ["108"], ["632.8"], ["1.3923", "0.0002"]], [["0.5"], ["321.345"], ["108"], ["632.8"], ["1.392", "0.0002"]], [["0.5"], ["322.291"], ["108"], ["632.8"], ["1.3918", "0.0002"]], [["0.5"], ["323.275"], ["108"], ["632.8"], ["1.3915", "0.0002"]], [["0.5"], ["324.301"], ["108"], ["632.8"], ["1.3912", "0.0002"]], [["0.5"], ["325.337"], ["108"], ["632.8"], ["1.3909", "0.0002"]], [["0.5"], ["326.598"], ["108"], ["632.8"], ["1.3905", "0.0002"]], [["0.5"], ["327.647"], ["108"], ["632.8"], ["1.3902", "0.0002"]], [["0.6"], ["320.245"], ["108"], ["632.8"], ["1.3951", "0.0003"]], [["0.6"], ["321.293"], ["108"], ["632.8"], ["1.3949", "0.0003"]], [["0.6"], ["322.294"], ["108"], ["632.8"], ["1.3945", "0.0003"]], [["0.6"], ["323.299"], ["108"], ["632.8"], ["1.3943", "0.0003"]], [["0.6"], ["324.278"], ["108"], ["632.8"], ["1.394", "0.0003"]], [["0.6"], ["325.284"], ["108"], ["632.8"], ["1.3938", "0.0003"]], [["0.6"], ["326.603"], ["108"], ["632.8"], ["1.3934", "0.0003"]], [["0.6"], ["327.674"], ["108"], ["632.8"], ["1.3931", "0.0003"]], [["0.7"], ["320.249"], ["108"], ["632.8"], ["1.3973", "0.0003"]], [["0.7"], ["321.276"], ["108"], ["632.8"], ["1.3971", "0.0003"]], [["0.7"], ["322.271"], ["108"], ["632.8"], ["1.3968", "0.0003"]], [["0.7"], ["323.302"], ["108"], ["632.8"], ["1.3965", "0.0003"]], [["0.7"], ["324.24"], ["108"], ["632.8"], ["1.3962", "0.0003"]], [["0.7"], ["325.318"], ["108"], ["632.8"], ["1.396", "0.0003"]], [["0.7"], ["326.613"], ["108"], ["632.8"], ["1.3956", "0.0003"]], [["0.7"], ["327.733"], ["108"], ["632.8"], ["1.3953", "0.0003"]], [["0.801"], ["320.263"], ["108"], ["632.8"], ["1.3992", "0.0003"]], [["0.801"], ["321.267"], ["108"], ["632.8"], ["1.3989", "0.0003"]], [["0.801"], ["322.289"], ["108"], ["632.8"], ["1.3987", "0.0003"]], [["0.801"], ["323.278"], ["108"], ["632.8"], ["1.3984", "0.0003"]], [["0.801"], ["324.234"], ["108"], ["632.8"], ["1.3981", "0.0003"]], [["0.801"], ["325.265"], ["108"], ["632.8"], ["1.3979", "0.0003"]], [["0.801"], ["326.582"], ["108"], ["632.8"], ["1.3975", "0.0003"]], [["0.801"], ["327.929"], ["108"], ["632.8"], ["1.3972", "0.0003"]], [["0.901"], ["320.237"], ["108"], ["632.8"], ["1.4008", "0.0003"]], [["0.901"], ["321.271"], ["108"], ["632.8"], ["1.4005", "0.0003"]], [["0.901"], ["322.269"], ["108"], ["632.8"], ["1.4002", "0.0003"]], [["0.901"], ["323.235"], ["108"], ["632.8"], ["1.4", "0.0003"]], [["0.901"], ["324.228"], ["108"], ["632.8"], ["1.3997", "0.0003"]], [["0.901"], ["325.31"], ["108"], ["632.8"], ["1.3994", "0.0003"]], [["0.901"], ["326.59"], ["108"], ["632.8"], ["1.3991", "0.0003"]], [["0.901"], ["327.914"], ["108"], ["632.8"], ["1.3987", "0.0003"]], [["1"], ["315.206"], ["108"], ["632.8"], ["1.4038", "0.0003"]], [["1"], ["317.26"], ["108"], ["632.8"], ["1.4032", "0.0003"]], [["1"], ["319.226"], ["108"], ["632.8"], ["1.4027", "0.0003"]], [["1"], ["321.472"], ["108"], ["632.8"], ["1.4021", "0.0003"]], [["1"], ["323.47"], ["108"], ["632.8"], ["1.4016", "0.0003"]], [["1"], ["325.405"], ["108"], ["632.8"], ["1.4011", "0.0003"]]], "solvent": null, "footer": "", "constr": [], "ref": {"title": "Liquid-liquid equilibrium and heat capacity measurements of the binary solution {ethanol + 1-butyl-3-methylimidazolium hexafluorophosphate}", "full": "Guo, Y.; Wang, X.; Tao, X.; Shen, W. (2017) J. Chem. Thermodyn. 115, 342-351."}, "phases": ["Liquid"]}