{"constr": [], "ref": {"full": "Kaur, Gagandeep; Kaur, Ramanjeet; Kaur, Jasmeet; Yadav, Subhra; Kumar, Harsh; Sharma, Pooja (2023) J. Solution Chem. 52(10), 1129-1148.", "title": "Influence of Morpholinium-Based Ionic Liquid on the Aggregation Behavior of Cationic Surfactant and Imidazolium-Based Ionic Liquid with the same Alkyl Chain in an Aqueous Medium"}, "phases": ["Liquid"], "title": "Refraction, surface tension, and speed of sound: Refractive index (Na D-line)", "components": [{"name": "tetradecyltrimethylammonium bromide", "formula": "C<SUB>17</SUB>H<SUB>38</SUB>BrN", "idout": "ABMkqO", "mw": "336.40", "sample": [["Source:", "commercial source"], ["Purification:", "stated by supplier"], ["Purity:", "99 mass %"], ["Purity analysis:", "dried by vacuum heating"]]}, {"idout": "AADYJk", "mw": "18.02", "formula": "H<SUB>2</SUB>O", "name": "water", "sample": [["Source:", "commercial source"], ["Purification:", "estimated by the compiler"], ["Purity:", "99.8 mass %(fractional distillation)"]]}], "dhead": [["Temperature, K", null], ["MolaRity of tetradecyltrimethylammonium bromide, mol/dm3", "Liquid"], ["Pressure, kPa", null], ["Refractive index (Na D-line)", "Liquid"]], "footer": "", "data": [[["293.15"], ["0.00027"], ["101"], ["1.33307", "0.00036"]], [["293.15"], ["0.00082"], ["101"], ["1.3331", "0.00036"]], [["293.15"], ["0.00137"], ["101"], ["1.33313", "0.00036"]], [["293.15"], ["0.00192"], ["101"], ["1.33316", "0.00036"]], [["293.15"], ["0.00247"], ["101"], ["1.33319", "0.00036"]], [["293.15"], ["0.00302"], ["101"], ["1.33322", "0.00036"]], [["293.15"], ["0.00357"], ["101"], ["1.33325", "0.00036"]], [["293.15"], ["0.00412"], ["101"], ["1.33327", "0.00036"]], [["293.15"], ["0.00467"], ["101"], ["1.33329", "0.00036"]], [["298.15"], ["0.00027"], ["101"], ["1.33255", "0.00037"]], [["298.15"], ["0.00082"], ["101"], ["1.33258", "0.00037"]], [["298.15"], ["0.00137"], ["101"], ["1.33261", "0.00037"]], [["298.15"], ["0.00192"], ["101"], ["1.33264", "0.00037"]], [["298.15"], ["0.00247"], ["101"], ["1.33267", "0.00037"]], [["298.15"], ["0.00302"], ["101"], ["1.3327", "0.00037"]], [["298.15"], ["0.00357"], ["101"], ["1.33273", "0.00037"]], [["298.15"], ["0.00412"], ["101"], ["1.33275", "0.00037"]], [["298.15"], ["0.00467"], ["101"], ["1.33276", "0.00037"]], [["303.15"], ["0.00027"], ["101"], ["1.33198", "0.00037"]], [["303.15"], ["0.00082"], ["101"], ["1.33201", "0.00037"]], [["303.15"], ["0.00137"], ["101"], ["1.33204", "0.00037"]], [["303.15"], ["0.00192"], ["101"], ["1.33207", "0.00037"]], [["303.15"], ["0.00247"], ["101"], ["1.3321", "0.00037"]], [["303.15"], ["0.00302"], ["101"], ["1.33214", "0.00037"]], [["303.15"], ["0.00357"], ["101"], ["1.33217", "0.00037"]], [["303.15"], ["0.00412"], ["101"], ["1.33219", "0.00037"]], [["303.15"], ["0.00467"], ["101"], ["1.33221", "0.00037"]], [["308.15"], ["0.00027"], ["101"], ["1.3313", "0.00037"]], [["308.15"], ["0.00082"], ["101"], ["1.33133", "0.00037"]], [["308.15"], ["0.00137"], ["101"], ["1.33136", "0.00037"]], [["308.15"], ["0.00192"], ["101"], ["1.33139", "0.00037"]], [["308.15"], ["0.00247"], ["101"], ["1.33143", "0.00037"]], [["308.15"], ["0.00302"], ["101"], ["1.33146", "0.00037"]], [["308.15"], ["0.00357"], ["101"], ["1.33149", "0.00037"]], [["308.15"], ["0.00412"], ["101"], ["1.33152", "0.00037"]], [["308.15"], ["0.00467"], ["101"], ["1.33153", "0.00037"]]], "solvent": "water", "expmeth": "Standard Abbe refractometry"}