{"title": "Refraction, surface tension, and speed of sound: Refractive index (Na D-line)", "components": [{"sample": [["Source:", "commercial source"], ["Purification:", "estimated by the compiler"], ["Purity:", "99.8 mass %(fractional distillation)"]], "name": "water", "formula": "H<SUB>2</SUB>O", "idout": "AADYJk", "mw": "18.02"}, {"sample": [["Source:", "commercial source"], ["Initial purification:", "stated by supplier"], ["Initial purity:", "99.5 mass %"], ["Final purification:", "Karl Fischer titration"], ["Final purity:", "0.0116 water mass %(dried by vacuum heating)"]], "formula": "C<SUB>10</SUB>H<SUB>11</SUB>N<SUB>5</SUB>", "name": "1-ethyl-3-methyl-1H-imidazolium tricyanomethanide", "mw": "201.23", "idout": "AAmkSk"}], "dhead": [["Mole fraction of water", "Liquid"], ["Pressure, kPa", null], ["Temperature, K", null], ["Refractive index (Na D-line)", "Liquid"]], "footer": "", "data": [[["0"], ["100"], ["298.15"], ["1.51227", "0.00036"]], [["0.10843"], ["100"], ["298.15"], ["1.50965", "0.00036"]], [["0.20586"], ["100"], ["298.15"], ["1.50681", "0.00036"]], [["0.30583"], ["100"], ["298.15"], ["1.50438", "0.00036"]], [["0.41447"], ["100"], ["298.15"], ["1.49961", "0.00035"]], [["0.51277"], ["100"], ["298.15"], ["1.49477", "0.00035"]], [["0.60952"], ["100"], ["298.15"], ["1.487", "0.00035"]], [["0.70645"], ["100"], ["298.15"], ["1.4765", "0.00035"]], [["0.78902"], ["100"], ["298.15"], ["1.46324", "0.00035"]], [["0.90153"], ["100"], ["298.15"], ["1.42697", "0.00035"]], [["0.9513"], ["100"], ["298.15"], ["1.39433", "0.00036"]], [["0.98687"], ["100"], ["298.15"], ["1.35455", "0.00037"]], [["1"], ["100"], ["298.15"], ["1.33252", "0.00035"]]], "solvent": null, "expmeth": "Standard Abbe refractometry", "constr": [], "ref": {"full": "Vatascin, E.; Dohnal, V. (2015) J. Chem. Thermodyn. 89, 169-176.", "title": "Thermophysical properties of aqueous solutions of the 1-ethyl-3-methylimidazolium tricyanomethanide ionic liquid"}, "phases": ["Liquid"]}