{"components": [{"sample": [["Source:", "commercial source"], ["Purification:", "stated by supplier"], ["Purity:", "99.8 mass %"], ["Purity analysis:", "de-gassed by boiling or ultrasonically;molecular sieve treatment"]], "formula": "C<SUB>3</SUB>H<SUB>8</SUB>O", "name": "propan-2-ol", "mw": "60.10", "idout": "AALcwx"}, {"sample": [["Source:", "commercial source"], ["Initial purification:", "stated by supplier"], ["Initial purity:", "99 mass %"], ["Final purification:", "Karl Fischer titration;ion chromatography"], ["Final purity:", "0.00005 water mass %;0.000053 halide impurity mass %(dried by vacuum heating)"]], "idout": "ABZxGx", "mw": "405.33", "formula": "C<SUB>9</SUB>H<SUB>13</SUB>F<SUB>6</SUB>N<SUB>3</SUB>O<SUB>4</SUB>S<SUB>2</SUB>", "name": "1-methyl-3-propylimidazolium bis[(trifluoromethyl)sulfonyl]imide"}], "title": "Refraction, surface tension, and speed of sound: Refractive index (Na D-line)", "dhead": [["Mole fraction of propan-2-ol", "Liquid"], ["Temperature, K", null], ["Pressure, kPa", null], ["Refractive index (Na D-line)", "Liquid"]], "data": [[["0"], ["298.15"], ["101"], ["1.42525", "0.0007"]], [["0.0493"], ["298.15"], ["101"], ["1.42452", "0.0007"]], [["0.0921"], ["298.15"], ["101"], ["1.42385", "0.0007"]], [["0.291"], ["298.15"], ["101"], ["1.42016", "0.00069"]], [["0.4093"], ["298.15"], ["101"], ["1.41732", "0.00069"]], [["0.5071"], ["298.15"], ["101"], ["1.41439", "0.00069"]], [["0.6113"], ["298.15"], ["101"], ["1.41043", "0.00068"]], [["0.6964"], ["298.15"], ["101"], ["1.40624", "0.00068"]], [["0.803"], ["298.15"], ["101"], ["1.39926", "0.00068"]], [["0.9009"], ["298.15"], ["101"], ["1.39013", "0.00068"]], [["0.9503"], ["298.15"], ["101"], ["1.38375", "0.00068"]], [["1"], ["298.15"], ["101"], ["1.375", "0.00068"]]], "solvent": null, "footer": "", "expmeth": "Standard Abbe refractometry", "ref": {"full": "Gomez, E.; Calvar, N.; Macedo, E. A.; Dominguez, A. (2012) J. Chem. Thermodyn. 45(1), 9-15.", "title": "Effect of the temperature on the physical properties of pure 1-propyl-3-methylimidazolium bis(trifluoromethylsulfonyl)imide and characterization of its binary mixtures with alcohols"}, "constr": [], "phases": ["Liquid"]}