{"dhead": [["Mole fraction of 1-butyl-3-methylimidazolium methyl sulfate", "Liquid"], ["Temperature, K", null], ["Pressure, kPa", null], ["Refractive index (Na D-line)", "Liquid"]], "components": [{"mw": "134.18", "idout": "AAZpai", "formula": "C<SUB>6</SUB>H<SUB>14</SUB>O<SUB>3</SUB>", "name": "3,6-dioxa-1-octanol", "sample": [["Source:", "commercial source"], ["Purification:", "stated by supplier"], ["Purity:", "99 % (basis not specified)"], ["Purity analysis:", "none used"]]}, {"name": "1-butyl-3-methylimidazolium methyl sulfate", "formula": "C<SUB>9</SUB>H<SUB>18</SUB>N<SUB>2</SUB>O<SUB>4</SUB>S", "mw": "250.31", "idout": "AAwHNg", "sample": [["Source:", "commercial source"], ["Purification:", "stated by supplier"], ["Purity:", "99 % (basis not specified)"], ["Purity analysis:", "dried by vacuum heating"]]}], "title": "Refraction, surface tension, and speed of sound: Refractive index (Na D-line)", "expmeth": "Standard Abbe refractometry", "solvent": null, "data": [[["0.0517"], ["298.15"], ["101"], ["1.4307", "0.0005"]], [["0.0891"], ["298.15"], ["101"], ["1.4339", "0.0005"]], [["0.1483"], ["298.15"], ["101"], ["1.4388", "0.0005"]], [["0.2233"], ["298.15"], ["101"], ["1.4443", "0.0005"]], [["0.2901"], ["298.15"], ["101"], ["1.4488", "0.0005"]], [["0.3194"], ["298.15"], ["101"], ["1.4507", "0.0005"]], [["0.3902"], ["298.15"], ["101"], ["1.4548", "0.0005"]], [["0.4732"], ["298.15"], ["101"], ["1.4593", "0.0005"]], [["0.5364"], ["298.15"], ["101"], ["1.4626", "0.0005"]], [["0.6235"], ["298.15"], ["101"], ["1.4663", "0.0005"]], [["0.696"], ["298.15"], ["101"], ["1.4697", "0.0005"]], [["0.8065"], ["298.15"], ["101"], ["1.4735", "0.0005"]], [["0.8947"], ["298.15"], ["101"], ["1.4763", "0.0005"]]], "footer": "", "ref": {"title": "Density and refractive index in mixtures of ionic liquids and organic solvents: Correlations and predictions", "full": "Iglesias-Otero, M. A.; Troncoso, J.; Carballo, E.; Romani, L. (2008) J. Chem. Thermodyn. 40(6), 949-956."}, "constr": [], "phases": ["Liquid"]}