{"components": [{"mw": "18.02", "idout": "AADYJk", "name": "water", "formula": "H<SUB>2</SUB>O", "sample": [["Source:", "commercial source"], ["Purification:", "estimated by the compiler"], ["Purity:", "99.5 % (basis not specified)"]]}, {"sample": [["Source:", "synthesized by the authors"]], "formula": "C<SUB>8</SUB>H<SUB>15</SUB>BrN<SUB>2</SUB>", "name": "1-butyl-3-methylimidazolium bromide", "idout": "AAqHiH", "mw": "219.13"}], "title": "Refraction, surface tension, and speed of sound: Refractive index (Na D-line)", "dhead": [["MolaRity of 1-butyl-3-methylimidazolium bromide, mol/dm3", "Liquid"], ["Pressure, kPa", null], ["Temperature, K", null], ["Refractive index (Na D-line)", "Liquid"]], "data": [[["0"], ["101"], ["298.15"], ["1.3324", "0.0007"]], [["0.7412"], ["101"], ["298.15"], ["1.3601", "0.0008"]], [["1.29834"], ["101"], ["298.15"], ["1.3773", "0.0008"]], [["2.9899"], ["101"], ["298.15"], ["1.4375", "0.0009"]], [["3.42531"], ["101"], ["298.15"], ["1.4514", "0.0009"]], [["4.1531"], ["101"], ["298.15"], ["1.4775", "0.0009"]], [["4.6884"], ["101"], ["298.15"], ["1.4991", "0.0009"]], [["5.0328"], ["101"], ["298.15"], ["1.511", "0.0009"]], [["5.2494"], ["101"], ["298.15"], ["1.5206", "0.0009"]], [["5.4234"], ["101"], ["298.15"], ["1.526", "0.0009"]], [["5.5631"], ["101"], ["298.15"], ["1.5307", "0.0009"]], [["5.6571"], ["101"], ["298.15"], ["1.5327", "0.001"]], [["5.7409"], ["101"], ["298.15"], ["1.5372", "0.001"]]], "solvent": "water", "footer": "", "expmeth": "Standard Abbe refractometry", "constr": [], "ref": {"title": "The physical properties of aqueous solution of room-temperature ionic liquids based on imidazolium: Database and evaluation", "full": "Liu, W.; Cheng, L.; Zhang, Y.; Wang, H.; Yu, M. (2008) J. Mol. Liq. 140, 68-72."}, "phases": ["Liquid"]}