{"expmeth": "Standard Abbe refractometry", "solvent": null, "data": [[["298.15"], ["0"], ["101"], ["1.4205", "0.0004"]], [["298.15"], ["0.2559"], ["101"], ["1.4253", "0.0004"]], [["298.15"], ["0.3956"], ["101"], ["1.4258", "0.0004"]], [["298.15"], ["0.4988"], ["101"], ["1.4256", "0.0004"]], [["298.15"], ["0.6"], ["101"], ["1.4249", "0.0004"]], [["298.15"], ["0.7021"], ["101"], ["1.4241", "0.0004"]], [["298.15"], ["0.8993"], ["101"], ["1.4222", "0.0004"]], [["298.15"], ["1"], ["101"], ["1.4215", "0.0004"]], [["303.15"], ["0"], ["101"], ["1.4171", "0.0004"]], [["303.15"], ["0.2559"], ["101"], ["1.4236", "0.0004"]], [["303.15"], ["0.3956"], ["101"], ["1.4244", "0.0004"]], [["303.15"], ["0.4988"], ["101"], ["1.4242", "0.0004"]], [["303.15"], ["0.6"], ["101"], ["1.4235", "0.0004"]], [["303.15"], ["0.7021"], ["101"], ["1.4225", "0.0004"]], [["303.15"], ["0.8993"], ["101"], ["1.4207", "0.0004"]], [["303.15"], ["1"], ["101"], ["1.4202", "0.0004"]], [["313.15"], ["0"], ["101"], ["1.4112", "0.0004"]], [["313.15"], ["0.2559"], ["101"], ["1.4196", "0.0004"]], [["313.15"], ["0.3956"], ["101"], ["1.421", "0.0004"]], [["313.15"], ["0.4988"], ["101"], ["1.4211", "0.0004"]], [["313.15"], ["0.6"], ["101"], ["1.4206", "0.0004"]], [["313.15"], ["0.7021"], ["101"], ["1.4199", "0.0004"]], [["313.15"], ["0.8993"], ["101"], ["1.4183", "0.0004"]], [["313.15"], ["1"], ["101"], ["1.4179", "0.0004"]], [["323.15"], ["0"], ["101"], ["1.4063", "0.0004"]], [["323.15"], ["0.2559"], ["101"], ["1.4161", "0.0004"]], [["323.15"], ["0.3956"], ["101"], ["1.4179", "0.0004"]], [["323.15"], ["0.4988"], ["101"], ["1.4181", "0.0004"]], [["323.15"], ["0.6"], ["101"], ["1.4177", "0.0004"]], [["323.15"], ["0.7021"], ["101"], ["1.4169", "0.0004"]], [["323.15"], ["0.8993"], ["101"], ["1.4155", "0.0004"]], [["323.15"], ["1"], ["101"], ["1.4153", "0.0004"]]], "footer": "", "dhead": [["Temperature, K", null], ["Mole fraction of 1-butyl-3-methylimidazolium tetrafluoroborate", "Liquid"], ["Pressure, kPa", null], ["Refractive index (Na D-line)", "Liquid"]], "components": [{"formula": "C<SUB>4</SUB>H<SUB>8</SUB>O<SUB>2</SUB>", "name": "1,4-dioxane", "mw": "88.11", "idout": "AAQxnz", "sample": [["Source:", "commercial source"], ["Purification:", "stated by supplier"], ["Purity:", "99 mass %"], ["Purity analysis:", "molecular sieve treatment"]]}, {"sample": [["Source:", "commercial source"], ["Purification:", "stated by supplier"], ["Purity:", "99 mass %"], ["Purity analysis:", "none used"]], "mw": "226.03", "idout": "AArYBF", "formula": "C<SUB>8</SUB>H<SUB>15</SUB>BF<SUB>4</SUB>N<SUB>2</SUB>", "name": "1-butyl-3-methylimidazolium tetrafluoroborate"}], "title": "Refraction, surface tension, and speed of sound: Refractive index (Na D-line)", "phases": ["Liquid"], "constr": [], "ref": {"full": "Ciocirlan, O.; Croitoru, O.; Iulian, O. (2014) J. Chem. Eng. Data 59(4), 1165-1174.", "title": "Density and Refractive Index of Binary Mixtures of Two 1-Alkyl-3-methylimidazolium Ionic Liquids with 1,4-Dioxane and Ethylene Glycol"}}