{"ref": {"title": "Solute Solvent Interactions of Amino Acids in Aqueous  1-Propyl-3-Methylimidazolium Bromide Ionic Liquid  Solutions at 298.15 K", "full": "Shekaari, H.; Jebali, F. (2010) J. Solution Chem. 39, 1409."}, "constr": [], "phases": ["Liquid"], "title": "Refraction, surface tension, and speed of sound: Refractive index (Na D-line)", "components": [{"name": "2-aminoacetic acid", "formula": "C<SUB>2</SUB>H<SUB>5</SUB>NO<SUB>2</SUB>", "idout": "AAOWgA", "mw": "75.07", "sample": [["Source:", "commercial source"], ["Purification:", "stated by supplier"], ["Purity:", "99.7 mol %"]]}, {"sample": [["Source:", "commercial source"], ["Purification:", "estimated by the compiler"], ["Purity:", "99.9 mol %(fractional distillation)"]], "idout": "AADYJk", "mw": "18.02", "name": "water", "formula": "H<SUB>2</SUB>O"}, {"idout": "AAnWVs", "mw": "205.10", "name": "1-methyl-3-propylimidazolium bromide", "formula": "C<SUB>7</SUB>H<SUB>13</SUB>BrN<SUB>2</SUB>", "sample": [["Source:", "synthesized by the authors"], ["Purification:", "NMR (proton);Karl Fischer titration"], ["Purity:", "99 mass %;0.02 water mass %(dried by vacuum heating;fractional crystallization)"]]}], "dhead": [["MolaLity of 1-methyl-3-propylimidazolium bromide, mol/kg", "Liquid"], ["MolaLity of 2-aminoacetic acid, mol/kg", "Liquid"], ["Temperature, K", null], ["Pressure, kPa", null], ["Refractive index (Na D-line)", "Liquid"]], "footer": "", "data": [[["0"], ["0"], ["298.15"], ["101.3"], ["1.3325", "0.0004"]], [["0"], ["0.0941"], ["298.15"], ["101.3"], ["1.333", "0.0004"]], [["0"], ["0.1492"], ["298.15"], ["101.3"], ["1.3337", "0.0004"]], [["0"], ["0.1972"], ["298.15"], ["101.3"], ["1.3344", "0.0004"]], [["0"], ["0.2611"], ["298.15"], ["101.3"], ["1.3354", "0.0004"]], [["0"], ["0.2975"], ["298.15"], ["101.3"], ["1.3359", "0.0004"]], [["0"], ["0.303"], ["298.15"], ["101.3"], ["1.336", "0.0004"]], [["0"], ["0.3935"], ["298.15"], ["101.3"], ["1.3372", "0.0004"]], [["0"], ["0.4408"], ["298.15"], ["101.3"], ["1.3378", "0.0004"]], [["0.0963"], ["0"], ["298.15"], ["101.3"], ["1.3368", "0.0004"]], [["0.0963"], ["0.0527"], ["298.15"], ["101.3"], ["1.3369", "0.0004"]], [["0.0963"], ["0.1031"], ["298.15"], ["101.3"], ["1.3377", "0.0004"]], [["0.0963"], ["0.1477"], ["298.15"], ["101.3"], ["1.3383", "0.0004"]], [["0.0963"], ["0.1946"], ["298.15"], ["101.3"], ["1.339", "0.0004"]], [["0.0963"], ["0.2614"], ["298.15"], ["101.3"], ["1.3399", "0.0004"]], [["0.0963"], ["0.3006"], ["298.15"], ["101.3"], ["1.3405", "0.0004"]], [["0.0963"], ["0.3506"], ["298.15"], ["101.3"], ["1.3412", "0.0004"]], [["0.0963"], ["0.4118"], ["298.15"], ["101.3"], ["1.342", "0.0004"]], [["0.0963"], ["0.4438"], ["298.15"], ["101.3"], ["1.3426", "0.0004"]], [["0.1962"], ["0"], ["298.15"], ["101.3"], ["1.339", "0.0004"]], [["0.1962"], ["0.042"], ["298.15"], ["101.3"], ["1.3396", "0.0004"]], [["0.1962"], ["0.111"], ["298.15"], ["101.3"], ["1.3404", "0.0004"]], [["0.1962"], ["0.1426"], ["298.15"], ["101.3"], ["1.3409", "0.0004"]], [["0.1962"], ["0.1924"], ["298.15"], ["101.3"], ["1.3416", "0.0004"]], [["0.1962"], ["0.263"], ["298.15"], ["101.3"], ["1.3425", "0.0004"]], [["0.1962"], ["0.2844"], ["298.15"], ["101.3"], ["1.3429", "0.0004"]], [["0.1962"], ["0.3457"], ["298.15"], ["101.3"], ["1.3438", "0.0004"]], [["0.1962"], ["0.4019"], ["298.15"], ["101.3"], ["1.3445", "0.0004"]], [["0.1962"], ["0.4359"], ["298.15"], ["101.3"], ["1.345", "0.0004"]], [["0.2995"], ["0"], ["298.15"], ["101.3"], ["1.343", "0.0004"]], [["0.2995"], ["0.0497"], ["298.15"], ["101.3"], ["1.344", "0.0004"]], [["0.2995"], ["0.1007"], ["298.15"], ["101.3"], ["1.3446", "0.0004"]], [["0.2995"], ["0.1419"], ["298.15"], ["101.3"], ["1.3452", "0.0004"]], [["0.2995"], ["0.2014"], ["298.15"], ["101.3"], ["1.346", "0.0004"]], [["0.2995"], ["0.2532"], ["298.15"], ["101.3"], ["1.3469", "0.0004"]], [["0.2995"], ["0.2949"], ["298.15"], ["101.3"], ["1.3474", "0.0004"]], [["0.2995"], ["0.3443"], ["298.15"], ["101.3"], ["1.3481", "0.0004"]], [["0.2995"], ["0.4078"], ["298.15"], ["101.3"], ["1.349", "0.0004"]], [["0.2995"], ["0.4401"], ["298.15"], ["101.3"], ["1.3495", "0.0004"]], [["0.3961"], ["0"], ["298.15"], ["101.3"], ["1.3433", "0.0004"]], [["0.3961"], ["0.0476"], ["298.15"], ["101.3"], ["1.345", "0.0004"]], [["0.3961"], ["0.1007"], ["298.15"], ["101.3"], ["1.3457", "0.0004"]], [["0.3961"], ["0.1485"], ["298.15"], ["101.3"], ["1.3463", "0.0004"]], [["0.3961"], ["0.1896"], ["298.15"], ["101.3"], ["1.3469", "0.0004"]], [["0.3961"], ["0.2512"], ["298.15"], ["101.3"], ["1.3477", "0.0004"]], [["0.3961"], ["0.2905"], ["298.15"], ["101.3"], ["1.3482", "0.0004"]], [["0.3961"], ["0.3556"], ["298.15"], ["101.3"], ["1.3492", "0.0004"]], [["0.3961"], ["0.4062"], ["298.15"], ["101.3"], ["1.3498", "0.0004"]], [["0.3961"], ["0.4378"], ["298.15"], ["101.3"], ["1.3503", "0.0004"]]], "solvent": "water", "expmeth": "Standard Abbe refractometry"}