{"ref": {"full": "Corderi, S.; Gonzalez, B.; Calvar, N.; Gomez, E. (2013) Fluid Phase Equilib. 337, 11-17.", "title": "Ionic liquids as solvents to separate the azeotropic mixture hexane/ethanol"}, "constr": [], "phases": ["Liquid"], "components": [{"name": "ethanol", "formula": "C<SUB>2</SUB>H<SUB>6</SUB>O", "mw": "46.07", "idout": "AAIsrh", "sample": [["Source:", "commercial source"], ["Purification:", "stated by supplier"], ["Purity:", "99.9 mol %"]]}, {"sample": [["Source:", "commercial source"], ["Purification:", "stated by supplier"], ["Purity:", "99 mol %"]], "mw": "86.18", "idout": "AAQdzy", "formula": "C<SUB>6</SUB>H<SUB>14</SUB>", "name": "hexane"}, {"formula": "C<SUB>9</SUB>H<SUB>13</SUB>F<SUB>6</SUB>N<SUB>3</SUB>O<SUB>4</SUB>S<SUB>2</SUB>", "name": "1-methyl-3-propylimidazolium bis[(trifluoromethyl)sulfonyl]imide", "mw": "405.33", "idout": "ABZxGx", "sample": [["Source:", "commercial source"], ["Initial purification:", "stated by supplier"], ["Initial purity:", "99 mol %"], ["Final purification:", "not known;not known"], ["Final purity:", "0.009 water mass %;0.01 halide impurity mass %(dried by vacuum heating)"]]}], "title": "Refraction, surface tension, and speed of sound: Refractive index (Na D-line)", "dhead": [["Weight fraction of hexane", "Liquid"], ["Weight fraction of ethanol", "Liquid"], ["Temperature, K", null], ["Pressure, kPa", null], ["Refractive index (Na D-line)", "Liquid"]], "data": [[["0"], ["0"], ["313.15"], ["101"], ["1.42072", "0.00039"]], [["0"], ["0.006"], ["313.15"], ["101"], ["1.42002", "0.00039"]], [["0"], ["0.016"], ["313.15"], ["101"], ["1.41876", "0.00039"]], [["0"], ["0.033"], ["313.15"], ["101"], ["1.41677", "0.00038"]], [["0"], ["0.056"], ["313.15"], ["101"], ["1.41426", "0.00038"]], [["0"], ["0.087"], ["313.15"], ["101"], ["1.41118", "0.00038"]], [["0"], ["0.128"], ["313.15"], ["101"], ["1.40726", "0.00038"]], [["0"], ["0.174"], ["313.15"], ["101"], ["1.40298", "0.00037"]], [["0"], ["0.254"], ["313.15"], ["101"], ["1.39649", "0.00037"]], [["0"], ["0.372"], ["313.15"], ["101"], ["1.38757", "0.00036"]], [["0"], ["0.551"], ["313.15"], ["101"], ["1.37559", "0.00035"]], [["0"], ["1"], ["313.15"], ["101"], ["1.35309", "0.00033"]], [["0.016"], ["0.247"], ["313.15"], ["101"], ["1.39514", "0.00037"]], [["0.024"], ["0.346"], ["313.15"], ["101"], ["1.3867", "0.00036"]], [["0.025"], ["0.286"], ["313.15"], ["101"], ["1.39142", "0.00036"]], [["0.025"], ["0.44"], ["313.15"], ["101"], ["1.38036", "0.00035"]], [["0.039"], ["0.282"], ["313.15"], ["101"], ["1.3909", "0.00036"]], [["0.04"], ["0.341"], ["313.15"], ["101"], ["1.38619", "0.00036"]], [["0.043"], ["0.521"], ["313.15"], ["101"], ["1.37451", "0.00035"]], [["0.046"], ["0.616"], ["313.15"], ["101"], ["1.36901", "0.00034"]], [["0.049"], ["0.708"], ["313.15"], ["101"], ["1.36431", "0.00034"]], [["0.051"], ["0.428"], ["313.15"], ["101"], ["1.37956", "0.00036"]], [["0.053"], ["0.799"], ["313.15"], ["101"], ["1.35976", "0.00034"]], [["0.054"], ["0.891"], ["313.15"], ["101"], ["1.35566", "0.00033"]], [["0.066"], ["0.331"], ["313.15"], ["101"], ["1.38514", "0.00036"]], [["0.078"], ["0.416"], ["313.15"], ["101"], ["1.3789", "0.00036"]], [["0.09"], ["0.495"], ["313.15"], ["101"], ["1.37345", "0.00035"]], [["0.095"], ["0.674"], ["313.15"], ["101"], ["1.36404", "0.00034"]], [["0.096"], ["0.585"], ["313.15"], ["101"], ["1.36835", "0.00035"]], [["0.105"], ["0.404"], ["313.15"], ["101"], ["1.37831", "0.00036"]], [["0.105"], ["0.755"], ["313.15"], ["101"], ["1.35975", "0.00034"]], [["0.132"], ["0.817"], ["313.15"], ["101"], ["1.35602", "0.00034"]], [["0.136"], ["0.471"], ["313.15"], ["101"], ["1.37242", "0.00035"]], [["0.144"], ["0.553"], ["313.15"], ["101"], ["1.36773", "0.00035"]], [["0.153"], ["0.631"], ["313.15"], ["101"], ["1.36383", "0.00034"]], [["0.155"], ["0.713"], ["313.15"], ["101"], ["1.35968", "0.00034"]], [["0.176"], ["0.449"], ["313.15"], ["101"], ["1.37168", "0.00035"]], [["0.19"], ["0.683"], ["313.15"], ["101"], ["1.35978", "0.00034"]], [["0.195"], ["0.52"], ["313.15"], ["101"], ["1.36743", "0.00035"]], [["0.206"], ["0.591"], ["313.15"], ["101"], ["1.3636", "0.00035"]], [["0.211"], ["0.742"], ["313.15"], ["101"], ["1.35639", "0.00034"]], [["0.252"], ["0.632"], ["313.15"], ["101"], ["1.35977", "0.00034"]], [["0.258"], ["0.553"], ["313.15"], ["101"], ["1.36338", "0.00035"]], [["0.275"], ["0.682"], ["313.15"], ["101"], ["1.35672", "0.00034"]], [["0.301"], ["0.59"], ["313.15"], ["101"], ["1.3598", "0.00035"]], [["0.304"], ["0.518"], ["313.15"], ["101"], ["1.36314", "0.00035"]], [["0.331"], ["0.629"], ["313.15"], ["101"], ["1.3571", "0.00034"]], [["0.351"], ["0.547"], ["313.15"], ["101"], ["1.35986", "0.00035"]], [["0.383"], ["0.58"], ["313.15"], ["101"], ["1.35738", "0.00035"]], [["0.405"], ["0.502"], ["313.15"], ["101"], ["1.36002", "0.00035"]], [["0.436"], ["0.531"], ["313.15"], ["101"], ["1.35775", "0.00035"]], [["0.485"], ["0.485"], ["313.15"], ["101"], ["1.35812", "0.00035"]], [["0.533"], ["0.439"], ["313.15"], ["101"], ["1.35848", "0.00035"]]], "solvent": null, "footer": "", "expmeth": "Standard Abbe refractometry"}