{"ref": {"title": "Influence of Different Inorganic Salts on the Ionicity and Thermophysical Properties of 1-Ethyl-3-methylimidazolium Acetate Ionic Liquid", "full": "Oliveira, F. S.; Rebelo, L. P. N.; Marrucho, I. M. (2015) J. Chem. Eng. Data 60(3), 781-789."}, "constr": [], "phases": ["Liquid"], "components": [{"name": "ammonium chloride (NH4Cl)", "formula": "ClH<SUB>4</SUB>N", "mw": "53.49", "idout": "AAKOQZ", "sample": [["Source:", "commercial source"], ["Purification:", "stated by supplier"], ["Purity:", "99.5 mass %"]]}, {"name": "1-ethyl-3-methylimidazolium acetate", "formula": "C<SUB>8</SUB>H<SUB>14</SUB>N<SUB>2</SUB>O<SUB>2</SUB>", "idout": "AAgmaR", "mw": "170.21", "sample": [["Source:", "commercial source"], ["Initial purification:", "stated by supplier"], ["Initial purity:", "95 mass %"], ["Final purification:", "Karl Fischer titration"], ["Final purity:", "0.4 water mass %"]]}], "title": "Refraction, surface tension, and speed of sound: Refractive index (Na D-line)", "dhead": [["Temperature, K", null], ["Mole fraction of ammonium chloride (NH4Cl)", "Liquid"], ["Pressure, kPa", null], ["Refractive index (Na D-line)", "Liquid"]], "data": [[["298.15"], ["0"], ["101"], ["1.49997", "0.0011"]], [["298.15"], ["0.0505"], ["101"], ["1.50091", "0.001"]], [["298.15"], ["0.0999"], ["101"], ["1.50176", "0.00099"]], [["298.15"], ["0.1702"], ["101"], ["1.50278", "0.00094"]], [["298.15"], ["0.25"], ["101"], ["1.50385", "0.00087"]], [["298.15"], ["0.3297"], ["101"], ["1.50474", "0.00081"]], [["303.15"], ["0"], ["101"], ["1.49867", "0.0011"]], [["303.15"], ["0.0505"], ["101"], ["1.49958", "0.001"]], [["303.15"], ["0.0999"], ["101"], ["1.50043", "0.001"]], [["303.15"], ["0.1702"], ["101"], ["1.5015", "0.00094"]], [["303.15"], ["0.25"], ["101"], ["1.50262", "0.00087"]], [["303.15"], ["0.3297"], ["101"], ["1.50345", "0.00081"]], [["308.15"], ["0"], ["101"], ["1.49732", "0.0011"]], [["308.15"], ["0.0505"], ["101"], ["1.4982", "0.001"]], [["308.15"], ["0.0999"], ["101"], ["1.49904", "0.001"]], [["308.15"], ["0.1702"], ["101"], ["1.50014", "0.00094"]], [["308.15"], ["0.25"], ["101"], ["1.50129", "0.00088"]], [["308.15"], ["0.3297"], ["101"], ["1.50217", "0.00081"]], [["313.15"], ["0"], ["101"], ["1.49597", "0.0011"]], [["313.15"], ["0.0505"], ["101"], ["1.49682", "0.001"]], [["313.15"], ["0.0999"], ["101"], ["1.49765", "0.001"]], [["313.15"], ["0.1702"], ["101"], ["1.49876", "0.00094"]], [["313.15"], ["0.25"], ["101"], ["1.49992", "0.00088"]], [["313.15"], ["0.3297"], ["101"], ["1.50085", "0.00081"]], [["318.15"], ["0"], ["101"], ["1.49465", "0.0011"]], [["318.15"], ["0.0505"], ["101"], ["1.49547", "0.001"]], [["318.15"], ["0.0999"], ["101"], ["1.49627", "0.001"]], [["318.15"], ["0.1702"], ["101"], ["1.49736", "0.00094"]], [["318.15"], ["0.25"], ["101"], ["1.49854", "0.00088"]], [["318.15"], ["0.3297"], ["101"], ["1.49951", "0.00081"]], [["323.15"], ["0"], ["101"], ["1.49331", "0.0011"]], [["323.15"], ["0.0505"], ["101"], ["1.49409", "0.001"]], [["323.15"], ["0.0999"], ["101"], ["1.49489", "0.001"]], [["323.15"], ["0.1702"], ["101"], ["1.49594", "0.00095"]], [["323.15"], ["0.25"], ["101"], ["1.49715", "0.00088"]], [["323.15"], ["0.3297"], ["101"], ["1.49817", "0.00081"]]], "solvent": null, "footer": "", "expmeth": "Standard Abbe refractometry"}