{"constr": [], "ref": {"full": "Guo, Y.; Wang, X.; Tao, X.; Shen, W. (2017) J. Chem. Thermodyn. 115, 342-351.", "title": "Liquid-liquid equilibrium and heat capacity measurements of the binary solution {ethanol + 1-butyl-3-methylimidazolium hexafluorophosphate}"}, "phases": ["Liquid mixture 2", "Liquid mixture 1"], "dhead": [["Temperature, K", null], ["Pressure, kPa", null], ["Wavelength, A", "Liquid mixture 2"], ["Refractive index", "Liquid mixture 2"]], "title": "Refraction, surface tension, and speed of sound: Refractive index", "components": [{"name": "1-butyl-3-methylimidazolium hexafluorophosphate", "formula": "C<SUB>8</SUB>H<SUB>15</SUB>F<SUB>6</SUB>N<SUB>2</SUB>P", "mw": "284.19", "idout": "ABChJv", "sample": [["Source:", "commercial source"], ["Initial purification:", "stated by supplier"], ["Initial purity:", "99 mass %"], ["Final purification:", "Karl Fischer titration"], ["Final purity:", "0.0200 water mass %(dried in a desiccator;dried by vacuum heating)"]]}, {"sample": [["Source:", "commercial source"], ["Initial purification:", "stated by supplier"], ["Initial purity:", "99.8 mass %"], ["Final purification:", "Karl Fischer titration"], ["Final purity:", "0.0060 water mass %(molecular sieve treatment)"]], "formula": "C<SUB>2</SUB>H<SUB>6</SUB>O", "name": "ethanol", "idout": "AAIsrh", "mw": "46.07"}], "expmeth": "minimum deviation method", "footer": "", "solvent": null, "data": [[["316.157"], ["109"], ["632.8"], ["1.3854", "0.0002"]], [["317.033"], ["109"], ["632.8"], ["1.3846", "0.0002"]], [["317.826"], ["109"], ["632.8"], ["1.3838", "0.0002"]], [["318.513"], ["109"], ["632.8"], ["1.3831", "0.0002"]], [["319.099"], ["109"], ["632.8"], ["1.3825", "0.0002"]], [["319.574"], ["109"], ["632.8"], ["1.3819", "0.0002"]], [["320.048"], ["109"], ["632.8"], ["1.3814", "0.0002"]], [["320.549"], ["109"], ["632.8"], ["1.3808", "0.0002"]], [["321.051"], ["109"], ["632.8"], ["1.3801", "0.0002"]], [["321.493"], ["109"], ["632.8"], ["1.3795", "0.0002"]], [["321.837"], ["109"], ["632.8"], ["1.379", "0.0002"]], [["322.149"], ["109"], ["632.8"], ["1.3786", "0.0002"]], [["322.45"], ["109"], ["632.8"], ["1.3781", "0.0002"]], [["322.728"], ["109"], ["632.8"], ["1.3776", "0.0002"]], [["323.013"], ["109"], ["632.8"], ["1.3771", "0.0002"]], [["323.254"], ["109"], ["632.8"], ["1.3767", "0.0003"]], [["323.496"], ["109"], ["632.8"], ["1.3761", "0.0003"]], [["323.712"], ["109"], ["632.8"], ["1.3756", "0.0003"]], [["323.904"], ["109"], ["632.8"], ["1.3752", "0.0003"]], [["324.104"], ["109"], ["632.8"], ["1.3747", "0.0003"]], [["324.275"], ["109"], ["632.8"], ["1.3743", "0.0003"]], [["324.423"], ["109"], ["632.8"], ["1.3737", "0.0003"]], [["324.548"], ["109"], ["632.8"], ["1.3734", "0.0003"]], [["324.674"], ["109"], ["632.8"], ["1.373", "0.0003"]], [["324.774"], ["109"], ["632.8"], ["1.3725", "0.0003"]], [["324.849"], ["109"], ["632.8"], ["1.3722", "0.0003"]], [["324.908"], ["109"], ["632.8"], ["1.3718", "0.0003"]], [["324.972"], ["109"], ["632.8"], ["1.3715", "0.0003"]], [["325.027"], ["109"], ["632.8"], ["1.3712", "0.0003"]], [["325.084"], ["109"], ["632.8"], ["1.3709", "0.0004"]], [["325.118"], ["109"], ["632.8"], ["1.3706", "0.0004"]], [["325.155"], ["109"], ["632.8"], ["1.3703", "0.0004"]], [["325.181"], ["109"], ["632.8"], ["1.3701", "0.0004"]], [["325.205"], ["109"], ["632.8"], ["1.3699", "0.0005"]], [["325.232"], ["109"], ["632.8"], ["1.3696", "0.0006"]], [["325.246"], ["109"], ["632.8"], ["1.3693", "0.0006"]], [["325.261"], ["109"], ["632.8"], ["1.3692", "0.0006"]], [["325.271"], ["109"], ["632.8"], ["1.369", "0.0007"]], [["325.288"], ["109"], ["632.8"], ["1.3687", "0.0009"]], [["325.302"], ["109"], ["632.8"], ["1.3685", "0.0007"]], [["325.31"], ["109"], ["632.8"], ["1.3682", "0.0009"]], [["325.316"], ["109"], ["632.8"], ["1.368", "0.0009"]], [["325.322"], ["109"], ["632.8"], ["1.3678", "0.001"]], [["325.326"], ["109"], ["632.8"], ["1.3676", "0.001"]], [["325.333"], ["109"], ["632.8"], ["1.3674", "0.0012"]]]}