{"components": [{"mw": "230.94", "idout": "AAsVDg", "formula": "CO<SUB>3</SUB>Rb<SUB>2</SUB>", "name": "rubidium carbonate", "sample": [["Source:", "commercial source"], ["Purification:", "stated by supplier"], ["Purity:", "99.5 mass %"]]}, {"mw": "18.02", "idout": "AADYJk", "name": "water", "formula": "H<SUB>2</SUB>O", "sample": [["Source:", "commercial source"], ["Purification:", "estimated by the compiler"], ["Purity:", "99.9 mol %(fractional distillation)"]]}, {"sample": [["Source:", "commercial source"], ["Purification:", "stated by supplier"], ["Purity:", "99 mass %"]], "idout": "AAnCNp", "mw": "203.08", "formula": "C<SUB>7</SUB>H<SUB>11</SUB>BrN<SUB>2</SUB>", "name": "1-allyl-3-methylimidazolium bromide"}], "title": "Refraction, surface tension, and speed of sound: Refractive index (Na D-line)", "dhead": [["Weight fraction of 1-allyl-3-methylimidazolium bromide", "Liquid"], ["Weight fraction of rubidium carbonate", "Liquid"], ["Temperature, K", null], ["Pressure, kPa", null], ["Refractive index (Na D-line)", "Liquid"]], "solvent": null, "data": [[["0.0162"], ["0.03"], ["298.15"], ["101"], ["1.33817", "0.00031"]], [["0.0164"], ["0"], ["298.15"], ["101"], ["1.33503", "0.00031"]], [["0.0165"], ["0.0601"], ["298.15"], ["101"], ["1.34147", "0.00031"]], [["0.033"], ["0"], ["298.15"], ["101"], ["1.33763", "0.00031"]], [["0.033"], ["0.03"], ["298.15"], ["101"], ["1.34088", "0.00031"]], [["0.0331"], ["0.06"], ["298.15"], ["101"], ["1.34421", "0.00031"]], [["0.0499"], ["0"], ["298.15"], ["101"], ["1.34034", "0.00031"]], [["0.05"], ["0.06"], ["298.15"], ["101"], ["1.34703", "0.00031"]], [["0.0501"], ["0.03"], ["298.15"], ["101"], ["1.34366", "0.00031"]], [["0.0662"], ["0.06"], ["298.15"], ["101"], ["1.34978", "0.00031"]], [["0.0664"], ["0.0299"], ["298.15"], ["101"], ["1.34636", "0.00031"]], [["0.0665"], ["0"], ["298.15"], ["101"], ["1.3431", "0.00031"]], [["0.0829"], ["0.03"], ["298.15"], ["101"], ["1.34912", "0.00031"]], [["0.083"], ["0.06"], ["298.15"], ["101"], ["1.35266", "0.00031"]], [["0.0838"], ["0"], ["298.15"], ["101"], ["1.34594", "0.00031"]], [["0.0983"], ["0"], ["298.15"], ["101"], ["1.34832", "0.00031"]], [["0.0998"], ["0.0599"], ["298.15"], ["101"], ["1.3556", "0.00032"]], [["0.1"], ["0.03"], ["298.15"], ["101"], ["1.35202", "0.00032"]], [["0.1163"], ["0"], ["298.15"], ["101"], ["1.3514", "0.00032"]], [["0.1165"], ["0.06"], ["298.15"], ["101"], ["1.35856", "0.00032"]], [["0.1169"], ["0.03"], ["298.15"], ["101"], ["1.35497", "0.00032"]], [["0.1324"], ["0.06"], ["298.15"], ["101"], ["1.36137", "0.00032"]], [["0.133"], ["0"], ["298.15"], ["101"], ["1.35442", "0.00032"]], [["0.133"], ["0.0299"], ["298.15"], ["101"], ["1.35773", "0.00032"]], [["0.1498"], ["0"], ["298.15"], ["101"], ["1.35692", "0.00032"]], [["0.1505"], ["0.0301"], ["298.15"], ["101"], ["1.36082", "0.00032"]], [["0.1513"], ["0.06"], ["298.15"], ["101"], ["1.36483", "0.00032"]], [["0.1665"], ["0"], ["298.15"], ["101"], ["1.35997", "0.00032"]], [["0.1665"], ["0.03"], ["298.15"], ["101"], ["1.36369", "0.00032"]], [["0.1665"], ["0.0601"], ["298.15"], ["101"], ["1.36727", "0.00032"]]], "footer": "", "expmeth": "Standard Abbe refractometry", "constr": [], "ref": {"full": "Yin, G.; Li, S.; Zhai, Q.; Jiang, Y.; Hu, M. (2013) Thermochim. Acta 566, 149-54.", "title": "Phase behavior of aqueous two-phase systems composed of1-alkyl-3-methylimidazolium bromide + Rb2CO3/Cs2CO3+ water"}, "phases": ["Liquid"]}