{"footer": "", "solvent": null, "data": [[["285.208"], ["100"], ["632.8"], ["1.3679", "0.0003"]], [["286.713"], ["100"], ["632.8"], ["1.368", "0.0003"]], [["288.273"], ["100"], ["632.8"], ["1.3682", "0.0003"]], [["289.761"], ["100"], ["632.8"], ["1.3685", "0.0003"]], [["290.887"], ["100"], ["632.8"], ["1.3689", "0.0003"]], [["291.919"], ["100"], ["632.8"], ["1.3694", "0.0003"]], [["292.822"], ["100"], ["632.8"], ["1.37", "0.0003"]], [["293.556"], ["100"], ["632.8"], ["1.3707", "0.0003"]], [["294.146"], ["100"], ["632.8"], ["1.3714", "0.0003"]], [["294.691"], ["100"], ["632.8"], ["1.3723", "0.0003"]], [["295.154"], ["100"], ["632.8"], ["1.3734", "0.0003"]], [["295.344"], ["100"], ["632.8"], ["1.3739", "0.0003"]], [["295.473"], ["100"], ["632.8"], ["1.3744", "0.0003"]], [["295.57"], ["100"], ["632.8"], ["1.3748", "0.0003"]], [["295.661"], ["100"], ["632.8"], ["1.3751", "0.0003"]], [["295.745"], ["100"], ["632.8"], ["1.3755", "0.0003"]], [["295.816"], ["100"], ["632.8"], ["1.3759", "0.0003"]], [["295.868"], ["100"], ["632.8"], ["1.3761", "0.0003"]], [["295.942"], ["100"], ["632.8"], ["1.3764", "0.0003"]], [["295.986"], ["100"], ["632.8"], ["1.3767", "0.0004"]], [["296.017"], ["100"], ["632.8"], ["1.3769", "0.0004"]], [["296.061"], ["100"], ["632.8"], ["1.3772", "0.0004"]], [["296.099"], ["100"], ["632.8"], ["1.3775", "0.0004"]], [["296.138"], ["100"], ["632.8"], ["1.3778", "0.0004"]], [["296.174"], ["100"], ["632.8"], ["1.378", "0.0004"]], [["296.19"], ["100"], ["632.8"], ["1.3783", "0.0005"]], [["296.231"], ["100"], ["632.8"], ["1.3787", "0.0005"]], [["296.252"], ["100"], ["632.8"], ["1.379", "0.0006"]], [["296.284"], ["100"], ["632.8"], ["1.3794", "0.0007"]], [["296.315"], ["100"], ["632.8"], ["1.3799", "0.0007"]], [["296.341"], ["100"], ["632.8"], ["1.3804", "0.0008"]], [["296.352"], ["100"], ["632.8"], ["1.3806", "0.0009"]], [["296.37"], ["100"], ["632.8"], ["1.3809", "0.001"]], [["296.383"], ["100"], ["632.8"], ["1.3813", "0.0013"]], [["296.398"], ["100"], ["632.8"], ["1.3818", "0.0011"]], [["296.407"], ["100"], ["632.8"], ["1.3821", "0.0011"]], [["296.421"], ["100"], ["632.8"], ["1.3826", "0.0014"]], [["296.432"], ["100"], ["632.8"], ["1.3832", "0.0016"]]], "expmeth": "minimum deviation angle method", "title": "Refraction, surface tension, and speed of sound: Refractive index", "components": [{"sample": [["Source:", "commercial source"], ["Initial purification:", "stated by supplier"], ["Initial purity:", "99.5 mass %"], ["Final purification:", "Karl Fischer titration"], ["Final purity:", "0.0040 water mass %(molecular sieve treatment)"]], "formula": "C<SUB>2</SUB>H<SUB>6</SUB>O", "name": "ethanol", "idout": "AAIsrh", "mw": "46.07"}, {"sample": [["Source:", "commercial source"], ["Initial purification:", "stated by supplier"], ["Initial purity:", "99 mass %"], ["Final purification:", "Karl Fischer titration"], ["Final purity:", "0.0520 water mass %(dried in a desiccator;dried by vacuum heating)"]], "name": "1-butylpyridinium tetrafluoroborate", "formula": "C<SUB>9</SUB>H<SUB>14</SUB>BF<SUB>4</SUB>N", "mw": "223.02", "idout": "AAquMR"}], "dhead": [["Temperature, K", null], ["Pressure, kPa", null], ["Wavelength, A", "Liquid mixture 1"], ["Refractive index", "Liquid mixture 1"]], "phases": ["Liquid mixture 1", "Liquid mixture 2"], "ref": {"title": "Thermodynamic behavior of {ethanol + butylpyridinium tetrafluoroborate} binary solution in the critical region", "full": "Tao, X.; Yin, T.; Xu, C.; Shen, W. (2017) J. Chem. Thermodyn. 110, 211-217."}, "constr": []}