{"constr": [], "ref": {"full": "Gomez, E.; Calvar, N.; Macedo, E. A.; Dominguez, A. (2012) J. Chem. Thermodyn. 45(1), 9-15.", "title": "Effect of the temperature on the physical properties of pure 1-propyl-3-methylimidazolium bis(trifluoromethylsulfonyl)imide and characterization of its binary mixtures with alcohols"}, "phases": ["Liquid"], "components": [{"mw": "60.10", "idout": "AALcLI", "name": "propan-1-ol", "formula": "C<SUB>3</SUB>H<SUB>8</SUB>O", "sample": [["Source:", "commercial source"], ["Purification:", "stated by supplier"], ["Purity:", "99.9 mass %"], ["Purity analysis:", "de-gassed by boiling or ultrasonically;molecular sieve treatment"]]}, {"name": "1-methyl-3-propylimidazolium bis[(trifluoromethyl)sulfonyl]imide", "formula": "C<SUB>9</SUB>H<SUB>13</SUB>F<SUB>6</SUB>N<SUB>3</SUB>O<SUB>4</SUB>S<SUB>2</SUB>", "idout": "ABZxGx", "mw": "405.33", "sample": [["Source:", "commercial source"], ["Initial purification:", "stated by supplier"], ["Initial purity:", "99 mass %"], ["Final purification:", "Karl Fischer titration;ion chromatography"], ["Final purity:", "0.00005 water mass %;0.000053 halide impurity mass %(dried by vacuum heating)"]]}], "title": "Refraction, surface tension, and speed of sound: Refractive index (Na D-line)", "dhead": [["Mole fraction of propan-1-ol", "Liquid"], ["Temperature, K", null], ["Pressure, kPa", null], ["Refractive index (Na D-line)", "Liquid"]], "solvent": null, "data": [[["0"], ["298.15"], ["101"], ["1.42525", "0.0007"]], [["0.0787"], ["298.15"], ["101"], ["1.42424", "0.0007"]], [["0.1022"], ["298.15"], ["101"], ["1.42391", "0.0007"]], [["0.247"], ["298.15"], ["101"], ["1.42164", "0.00069"]], [["0.39"], ["298.15"], ["101"], ["1.41887", "0.00069"]], [["0.442"], ["298.15"], ["101"], ["1.41758", "0.00069"]], [["0.4877"], ["298.15"], ["101"], ["1.41661", "0.00068"]], [["0.569"], ["298.15"], ["101"], ["1.41422", "0.00068"]], [["0.6455"], ["298.15"], ["101"], ["1.41148", "0.00068"]], [["0.703"], ["298.15"], ["101"], ["1.40897", "0.00068"]], [["0.75"], ["298.15"], ["101"], ["1.40667", "0.00068"]], [["0.8048"], ["298.15"], ["101"], ["1.40345", "0.00068"]], [["0.8492"], ["298.15"], ["101"], ["1.40025", "0.00068"]], [["1"], ["298.15"], ["101"], ["1.38307", "0.00068"]]], "footer": "", "expmeth": "Standard Abbe refractometry"}