{"ref": {"full": "Teodorescu, M. (2014) Ind. Eng. Chem. Res. 53(34), 13522-13528.", "title": "Isothermal Vapor + Liquid Equilibrium and Thermophysical Properties for 1-Butyl-3-methylimidazolium Bromide + 1-Butanol Binary System"}, "constr": [], "phases": ["Liquid"], "title": "Refraction, surface tension, and speed of sound: Refractive index (Na D-line)", "components": [{"name": "butan-1-ol", "formula": "C<SUB>4</SUB>H<SUB>10</SUB>O", "idout": "AAONVE", "mw": "74.12", "sample": [["Source:", "commercial source"], ["Purification:", "stated by supplier"], ["Purity:", "99.5 mass %"], ["Purity analysis:", "molecular sieve treatment"]]}, {"sample": [["Source:", "commercial source"], ["Purification:", "stated by supplier"], ["Purity:", "97 mass %"], ["Purity analysis:", "dried by vacuum heating"]], "formula": "C<SUB>8</SUB>H<SUB>15</SUB>BrN<SUB>2</SUB>", "name": "1-butyl-3-methylimidazolium bromide", "mw": "219.13", "idout": "AAqHiH"}], "dhead": [["Temperature, K", null], ["Mole fraction of 1-butyl-3-methylimidazolium bromide", "Liquid"], ["Pressure, kPa", null], ["Refractive index (Na D-line)", "Liquid"]], "footer": "", "data": [[["298.15"], ["0"], ["101"], ["1.3973", "0.0004"]], [["298.15"], ["0.094"], ["101"], ["1.4203", "0.0006"]], [["298.15"], ["0.193"], ["101"], ["1.4404", "0.0006"]], [["298.15"], ["0.271"], ["101"], ["1.4549", "0.0005"]], [["298.15"], ["0.345"], ["101"], ["1.4663", "0.0005"]], [["298.15"], ["0.466"], ["101"], ["1.4834", "0.0006"]], [["298.15"], ["0.584"], ["101"], ["1.4979", "0.0006"]], [["298.15"], ["0.667"], ["101"], ["1.507", "0.0006"]], [["298.15"], ["0.779"], ["101"], ["1.5179", "0.0006"]], [["298.15"], ["0.818"], ["101"], ["1.521", "0.0006"]], [["298.15"], ["1"], ["101"], ["1.5353", "0.0007"]], [["308.15"], ["0"], ["101"], ["1.3932", "0.0004"]], [["308.15"], ["0.094"], ["101"], ["1.4166", "0.0006"]], [["308.15"], ["0.193"], ["101"], ["1.4369", "0.0006"]], [["308.15"], ["0.271"], ["101"], ["1.4515", "0.0005"]], [["308.15"], ["0.345"], ["101"], ["1.463", "0.0005"]], [["308.15"], ["0.466"], ["101"], ["1.4803", "0.0006"]], [["308.15"], ["0.584"], ["101"], ["1.4949", "0.0006"]], [["308.15"], ["0.667"], ["101"], ["1.504", "0.0006"]], [["308.15"], ["0.779"], ["101"], ["1.5149", "0.0006"]], [["308.15"], ["0.818"], ["101"], ["1.5181", "0.0006"]], [["308.15"], ["1"], ["101"], ["1.5326", "0.0007"]]], "solvent": null, "expmeth": "Standard Abbe refractometry"}