{"constr": [], "ref": {"full": "Almeida, H. F. D.; Lopes-da-Silva, J. A.; Freire, M. G.; Coutinho, J. A. P. (2013) J. Chem. Thermodyn. 57, 372-379.", "title": "Surface tension and refractive index of pure and water-saturated  tetradecyltrihexylphosphonium-based ionic liquids"}, "phases": ["Liquid"], "title": "Refraction, surface tension, and speed of sound: Refractive index (Na D-line)", "components": [{"sample": [["Source:", "commercial source"], ["Initial purification:", "stated by supplier"], ["Initial purity:", "94 mass %"], ["Final purification:", "NMR (proton);Karl Fischer titration"], ["Final purity:", "99 mass %;0.04 water mass %(chemical reagent treatment;dried by vacuum heating)"]], "formula": "C<SUB>32</SUB>H<SUB>68</SUB>ClP", "name": "trihexyl(tetradecyl)phosphonium chloride", "mw": "519.32", "idout": "ABvtRE"}], "dhead": [["Temperature, K", null], ["Pressure, kPa", null], ["Refractive index (Na D-line)", "Liquid"]], "footer": "", "data": [[["283.15"], ["101.325"], ["1.48794", "0.00037"]], [["288.15"], ["101.325"], ["1.48635", "0.00037"]], [["293.15"], ["101.325"], ["1.48471", "0.00037"]], [["298.15"], ["101.325"], ["1.48309", "0.00037"]], [["303.15"], ["101.325"], ["1.48142", "0.00037"]], [["308.15"], ["101.325"], ["1.47973", "0.00037"]], [["313.15"], ["101.325"], ["1.47796", "0.00037"]], [["318.15"], ["101.325"], ["1.4757", "0.00037"]], [["323.15"], ["101.325"], ["1.47387", "0.00037"]], [["328.15"], ["101.325"], ["1.4721", "0.00037"]], [["333.15"], ["101.325"], ["1.47029", "0.00037"]], [["338.15"], ["101.325"], ["1.46854", "0.00037"]], [["343.15"], ["101.325"], ["1.46677", "0.00037"]], [["348.15"], ["101.325"], ["1.46504", "0.00037"]], [["353.15"], ["101.325"], ["1.4634", "0.00037"]]], "solvent": null, "expmeth": "Standard Abbe refractometry"}