{"constr": [], "ref": {"full": "Kazarina, Olga V.; Petukhov, Anton N.; Vorotyntsev, Andrey V.; Atlaskina, Maria E.; Atlaskin, Artem A.; Kazarin, Alexander S.; Golovacheva, Anna A.; Sedova, Natalia A.; Markov, Artyom N.; Suvorov, Sergey S.; Barysheva, Alexandra V.; Vorotyntsev, Ilya V. (2023) Fluid Phase Equilib. 568, 113736.", "title": "The way for improving the efficiency of ammonia and carbon dioxide absorption of choline chloride: Urea mixtures by modifying a choline cation"}, "phases": ["Liquid"], "components": [{"idout": "AApFFp", "mw": "213.70", "name": "dimethyl(2-hydroxyethyl)(2-(2-hydroxyethoxy)ethyl)ammonium chloride", "formula": "C<SUB>8</SUB>H<SUB>20</SUB>ClNO<SUB>3</SUB>", "sample": [["Source:", "synthesized by the authors"], ["Purification:", "Karl Fischer titration"], ["Purity:", "0.040 water mass %(crystallization from solution;dried by vacuum heating)"]]}, {"name": "urea", "formula": "CH<SUB>4</SUB>N<SUB>2</SUB>O", "mw": "60.06", "idout": "AALcjF", "sample": [["Source:", "synthesized by the authors"], ["Initial purification:", "stated by supplier"], ["Initial purity:", "99 mass %"], ["Final purification:", "Karl Fischer titration"], ["Final purity:", "0.035 water mass %(crystallization from solution;dried in a desiccator)"]]}], "title": "Refraction, surface tension, and speed of sound: Refractive index (Na D-line)", "dhead": [["Temperature, K", null], ["Pressure, kPa", null], ["Mole fraction of dimethyl(2-hydroxyethyl)(2-(2-hydroxyethoxy)ethyl)ammonium chloride", "Liquid"], ["Refractive index (Na D-line)", "Liquid"]], "solvent": null, "data": [[["283.15"], ["100"], ["0.5"], ["1.50765", "0.00076"]], [["288.15"], ["100"], ["0.5"], ["1.50639", "0.00076"]], [["293.15"], ["100"], ["0.5"], ["1.50515", "0.00076"]], [["298.15"], ["100"], ["0.5"], ["1.50388", "0.00077"]], [["303.15"], ["100"], ["0.5"], ["1.50259", "0.00076"]], [["308.15"], ["100"], ["0.5"], ["1.50135", "0.00076"]], [["313.15"], ["100"], ["0.5"], ["1.50007", "0.00077"]], [["318.15"], ["100"], ["0.5"], ["1.49876", "0.00077"]], [["323.15"], ["100"], ["0.5"], ["1.49748", "0.00076"]], [["328.15"], ["100"], ["0.5"], ["1.49626", "0.00076"]], [["333.15"], ["100"], ["0.5"], ["1.49506", "0.00077"]], [["338.15"], ["100"], ["0.5"], ["1.49364", "0.00077"]], [["343.15"], ["100"], ["0.5"], ["1.4924", "0.00076"]]], "footer": "", "expmeth": "Standard Abbe refractometry"}