{"ref": {"full": "Roy, Debadrita; Majumder, Sukdev; Mallick, Kangkan; Roy, Niloy; Saha, Baishali; Saha, Subhadeep; Sinha, Biswajit (2024) J. Chem. Eng. Data 69(1), 38-58.", "title": "Exploration of Solvation Consequences of Ionic Liquids Prevalent in the Aqueous Media of Food Additive Azo Dye Tartrazine by Physicochemical and Computational Studies"}, "constr": [], "phases": ["Liquid"], "components": [{"idout": "ABynGz", "mw": "534.36", "name": "Tartrazine", "formula": "C<SUB>16</SUB>H<SUB>9</SUB>N<SUB>4</SUB>Na<SUB>3</SUB>O<SUB>9</SUB>S<SUB>2</SUB>", "sample": [["Source:", "commercial source"], ["Purification:", "stated by supplier"], ["Purity:", "98 mass %"]]}, {"idout": "AAjkLa", "mw": "185.69", "formula": "C<SUB>10</SUB>H<SUB>16</SUB>ClN", "name": "trimethylbenzylammonium chloride", "sample": [["Source:", "commercial source"], ["Initial purification:", "stated by supplier"], ["Initial purity:", "99 mass %"], ["Final purification:", "Karl Fischer titration"], ["Final purity:", "0.04 water mass %(dried by oven heating)"]]}, {"sample": [["Source:", "commercial source"], ["Purification:", "estimated by the compiler"], ["Purity:", "99.8 mass %(fractional distillation;impurity adsorption)"]], "idout": "AADYJk", "mw": "18.02", "formula": "H<SUB>2</SUB>O", "name": "water"}], "title": "Refraction, surface tension, and speed of sound: Refractive index (Na D-line)", "dhead": [["Solvent: MolaLity of trimethylbenzylammonium chloride, mol/kg", "Liquid"], ["Temperature, K", null], ["MolaLity of Tartrazine, mol/kg", "Liquid"], ["Pressure, kPa", null], ["Refractive index (Na D-line)", "Liquid"]], "data": [[["0.001"], ["298.15"], ["0"], ["101.3"], ["1.332", "0.0014"]], [["0.001"], ["298.15"], ["0.01"], ["101.3"], ["1.3323", "0.0014"]], [["0.001"], ["298.15"], ["0.025"], ["101.3"], ["1.3324", "0.0014"]], [["0.001"], ["298.15"], ["0.04"], ["101.3"], ["1.3327", "0.0014"]], [["0.001"], ["298.15"], ["0.055"], ["101.3"], ["1.333", "0.0014"]], [["0.001"], ["298.15"], ["0.07"], ["101.3"], ["1.3334", "0.0014"]], [["0.001"], ["298.15"], ["0.085"], ["101.3"], ["1.3338", "0.0014"]], [["0.001"], ["308.15"], ["0"], ["101.3"], ["1.3315", "0.0014"]], [["0.001"], ["308.15"], ["0.01"], ["101.3"], ["1.3317", "0.0014"]], [["0.001"], ["308.15"], ["0.025"], ["101.3"], ["1.3319", "0.0014"]], [["0.001"], ["308.15"], ["0.04"], ["101.3"], ["1.3322", "0.0014"]], [["0.001"], ["308.15"], ["0.055"], ["101.3"], ["1.3326", "0.0014"]], [["0.001"], ["308.15"], ["0.07"], ["101.3"], ["1.333", "0.0014"]], [["0.001"], ["308.15"], ["0.085"], ["101.3"], ["1.3334", "0.0014"]], [["0.001"], ["318.15"], ["0"], ["101.3"], ["1.3309", "0.0014"]], [["0.001"], ["318.15"], ["0.01"], ["101.3"], ["1.3311", "0.0014"]], [["0.001"], ["318.15"], ["0.025"], ["101.3"], ["1.3313", "0.0014"]], [["0.001"], ["318.15"], ["0.04"], ["101.3"], ["1.3316", "0.0014"]], [["0.001"], ["318.15"], ["0.055"], ["101.3"], ["1.332", "0.0014"]], [["0.001"], ["318.15"], ["0.07"], ["101.3"], ["1.3324", "0.0014"]], [["0.001"], ["318.15"], ["0.085"], ["101.3"], ["1.3328", "0.0014"]], [["0.003"], ["298.15"], ["0"], ["101.3"], ["1.3323", "0.0014"]], [["0.003"], ["298.15"], ["0.01"], ["101.3"], ["1.3326", "0.0014"]], [["0.003"], ["298.15"], ["0.025"], ["101.3"], ["1.3327", "0.0014"]], [["0.003"], ["298.15"], ["0.04"], ["101.3"], ["1.3329", "0.0014"]], [["0.003"], ["298.15"], ["0.055"], ["101.3"], ["1.3332", "0.0014"]], [["0.003"], ["298.15"], ["0.07"], ["101.3"], ["1.3336", "0.0014"]], [["0.003"], ["298.15"], ["0.085"], ["101.3"], ["1.334", "0.0014"]], [["0.003"], ["308.15"], ["0"], ["101.3"], ["1.3317", "0.0014"]], [["0.003"], ["308.15"], ["0.01"], ["101.3"], ["1.332", "0.0014"]], [["0.003"], ["308.15"], ["0.025"], ["101.3"], ["1.3322", "0.0014"]], [["0.003"], ["308.15"], ["0.04"], ["101.3"], ["1.3325", "0.0014"]], [["0.003"], ["308.15"], ["0.055"], ["101.3"], ["1.3328", "0.0014"]], [["0.003"], ["308.15"], ["0.07"], ["101.3"], ["1.3332", "0.0014"]], [["0.003"], ["308.15"], ["0.085"], ["101.3"], ["1.3336", "0.0014"]], [["0.003"], ["318.15"], ["0"], ["101.3"], ["1.3311", "0.0014"]], [["0.003"], ["318.15"], ["0.01"], ["101.3"], ["1.3314", "0.0014"]], [["0.003"], ["318.15"], ["0.025"], ["101.3"], ["1.3316", "0.0014"]], [["0.003"], ["318.15"], ["0.04"], ["101.3"], ["1.3318", "0.0014"]], [["0.003"], ["318.15"], ["0.055"], ["101.3"], ["1.3322", "0.0014"]], [["0.003"], ["318.15"], ["0.07"], ["101.3"], ["1.3326", "0.0014"]], [["0.003"], ["318.15"], ["0.085"], ["101.3"], ["1.333", "0.0014"]], [["0.005"], ["298.15"], ["0"], ["101.3"], ["1.3328", "0.0014"]], [["0.005"], ["298.15"], ["0.01"], ["101.3"], ["1.3329", "0.0014"]], [["0.005"], ["298.15"], ["0.025"], ["101.3"], ["1.333", "0.0014"]], [["0.005"], ["298.15"], ["0.04"], ["101.3"], ["1.3332", "0.0014"]], [["0.005"], ["298.15"], ["0.055"], ["101.3"], ["1.3335", "0.0014"]], [["0.005"], ["298.15"], ["0.07"], ["101.3"], ["1.3338", "0.0014"]], [["0.005"], ["298.15"], ["0.085"], ["101.3"], ["1.3342", "0.0014"]], [["0.005"], ["308.15"], ["0"], ["101.3"], ["1.3321", "0.0014"]], [["0.005"], ["308.15"], ["0.01"], ["101.3"], ["1.3324", "0.0014"]], [["0.005"], ["308.15"], ["0.025"], ["101.3"], ["1.3326", "0.0014"]], [["0.005"], ["308.15"], ["0.04"], ["101.3"], ["1.3328", "0.0014"]], [["0.005"], ["308.15"], ["0.055"], ["101.3"], ["1.3331", "0.0014"]], [["0.005"], ["308.15"], ["0.07"], ["101.3"], ["1.3335", "0.0014"]], [["0.005"], ["308.15"], ["0.085"], ["101.3"], ["1.3339", "0.0014"]], [["0.005"], ["318.15"], ["0"], ["101.3"], ["1.3314", "0.0014"]], [["0.005"], ["318.15"], ["0.01"], ["101.3"], ["1.3317", "0.0014"]], [["0.005"], ["318.15"], ["0.025"], ["101.3"], ["1.3319", "0.0014"]], [["0.005"], ["318.15"], ["0.04"], ["101.3"], ["1.3321", "0.0014"]], [["0.005"], ["318.15"], ["0.055"], ["101.3"], ["1.3325", "0.0014"]], [["0.005"], ["318.15"], ["0.07"], ["101.3"], ["1.3328", "0.0014"]], [["0.005"], ["318.15"], ["0.085"], ["101.3"], ["1.3333", "0.0014"]]], "solvent": "trimethylbenzylammonium chloride + water", "footer": "", "expmeth": "Standard Abbe refractometry"}