{"expmeth": "Standard Abbe refractometry", "data": [[["283.15"], ["101.325"], ["1.41546", "0.00062"]], [["288.15"], ["101.325"], ["1.41423", "0.00062"]], [["293.15"], ["101.325"], ["1.413", "0.00062"]], [["298.15"], ["101.325"], ["1.41177", "0.00062"]], [["303.15"], ["101.325"], ["1.41055", "0.00062"]], [["308.15"], ["101.325"], ["1.40934", "0.00062"]], [["313.15"], ["101.325"], ["1.4081", "0.00062"]], [["318.15"], ["101.325"], ["1.4069", "0.00061"]], [["323.15"], ["101.325"], ["1.4057", "0.00061"]], [["328.15"], ["101.325"], ["1.40452", "0.00062"]], [["333.15"], ["101.325"], ["1.40327", "0.00061"]], [["338.15"], ["101.325"], ["1.40211", "0.00061"]], [["343.15"], ["101.325"], ["1.40093", "0.00061"]], [["348.15"], ["101.325"], ["1.39975", "0.00061"]], [["353.15"], ["101.325"], ["1.39858", "0.00061"]]], "solvent": null, "footer": "", "dhead": [["Temperature, K", null], ["Pressure, kPa", null], ["Refractive index (Na D-line)", "Liquid"]], "components": [{"mw": "197.97", "idout": "AAmDom", "formula": "C<SUB>6</SUB>H<SUB>11</SUB>BF<SUB>4</SUB>N<SUB>2</SUB>", "name": "1-ethyl-3-methylimidazolium tetrafluoroborate", "sample": [["Source:", "commercial source"], ["Initial purification:", "stated by supplier"], ["Initial purity:", "98 mass %"], ["Final purification:", "Karl Fischer titration"], ["Final purity:", "0.01 water mass %(dried by vacuum heating)"]]}], "title": "Refraction, surface tension, and speed of sound: Refractive index (Na D-line)", "phases": ["Liquid"], "ref": {"title": "Comprehensive Refractive Index Property for Room-Temperature Ionic Liquids", "full": "Seki, S.; Tsuzuki, S.; Hayamizu, K.; Umebayashi, Y.; Serizawa, N.; Takei, K.; Miyashiro, H. (2012) J. Chem. Eng. Data 57(8), 2211-2216."}, "constr": []}