{"title": "Refraction, surface tension, and speed of sound: Refractive index (Na D-line)", "components": [{"name": "1-(4-methoxybutyl)-3-methylimidazolium L-threoninate", "formula": "C<SUB>13</SUB>H<SUB>25</SUB>N<SUB>3</SUB>O<SUB>4</SUB>", "mw": "287.36", "idout": "ABDNsG", "sample": [["Source:", "synthesized by the authors"], ["Purification:", "estimated by the compiler;Karl Fischer titration"], ["Purity:", "98 mass %;0.599 water mass %(dried by vacuum heating)"]]}, {"name": "water", "formula": "H<SUB>2</SUB>O", "mw": "18.02", "idout": "AADYJk", "sample": [["Source:", "commercial source"], ["Purification:", "estimated by the compiler"], ["Purity:", "99.9 mass %(fractional distillation)"]]}], "dhead": [["Weight fraction of water", "Liquid"], ["Temperature, K", null], ["Pressure, kPa", null], ["Refractive index (Na D-line)", "Liquid"]], "footer": "", "data": [[["0.00599"], ["288.15"], ["101"], ["1.4998", "0.003"]], [["0.00599"], ["293.15"], ["101"], ["1.4982", "0.003"]], [["0.00599"], ["298.15"], ["101"], ["1.4964", "0.003"]], [["0.00599"], ["303.15"], ["101"], ["1.4946", "0.003"]], [["0.00599"], ["308.15"], ["101"], ["1.4927", "0.003"]], [["0.00599"], ["313.15"], ["101"], ["1.4911", "0.003"]], [["0.00599"], ["318.15"], ["101"], ["1.4899", "0.003"]], [["0.00599"], ["323.15"], ["101"], ["1.4882", "0.003"]], [["0.00599"], ["328.15"], ["101"], ["1.4864", "0.003"]], [["0.00903"], ["288.15"], ["101"], ["1.499", "0.003"]], [["0.00903"], ["293.15"], ["101"], ["1.4973", "0.003"]], [["0.00903"], ["298.15"], ["101"], ["1.4955", "0.003"]], [["0.00903"], ["303.15"], ["101"], ["1.4936", "0.003"]], [["0.00903"], ["308.15"], ["101"], ["1.4918", "0.003"]], [["0.00903"], ["313.15"], ["101"], ["1.49", "0.003"]], [["0.00903"], ["318.15"], ["101"], ["1.4888", "0.003"]], [["0.00903"], ["323.15"], ["101"], ["1.487", "0.003"]], [["0.00903"], ["328.15"], ["101"], ["1.4852", "0.003"]], [["0.012"], ["288.15"], ["101"], ["1.4982", "0.003"]], [["0.012"], ["293.15"], ["101"], ["1.4965", "0.003"]], [["0.012"], ["298.15"], ["101"], ["1.4946", "0.003"]], [["0.012"], ["303.15"], ["101"], ["1.4927", "0.003"]], [["0.012"], ["308.15"], ["101"], ["1.4907", "0.003"]], [["0.012"], ["313.15"], ["101"], ["1.4891", "0.003"]], [["0.012"], ["318.15"], ["101"], ["1.4877", "0.003"]], [["0.012"], ["323.15"], ["101"], ["1.4859", "0.003"]], [["0.012"], ["328.15"], ["101"], ["1.4841", "0.003"]], [["0.01501"], ["288.15"], ["101"], ["1.4974", "0.003"]], [["0.01501"], ["293.15"], ["101"], ["1.4957", "0.003"]], [["0.01501"], ["298.15"], ["101"], ["1.4938", "0.003"]], [["0.01501"], ["303.15"], ["101"], ["1.4918", "0.003"]], [["0.01501"], ["308.15"], ["101"], ["1.4896", "0.003"]], [["0.01501"], ["313.15"], ["101"], ["1.488", "0.003"]], [["0.01501"], ["318.15"], ["101"], ["1.4865", "0.003"]], [["0.01501"], ["323.15"], ["101"], ["1.4846", "0.003"]], [["0.01501"], ["328.15"], ["101"], ["1.4827", "0.003"]], [["0.01804"], ["288.15"], ["101"], ["1.4965", "0.003"]], [["0.01804"], ["293.15"], ["101"], ["1.4949", "0.003"]], [["0.01804"], ["298.15"], ["101"], ["1.493", "0.003"]], [["0.01804"], ["303.15"], ["101"], ["1.4909", "0.003"]], [["0.01804"], ["308.15"], ["101"], ["1.4886", "0.003"]], [["0.01804"], ["313.15"], ["101"], ["1.487", "0.003"]], [["0.01804"], ["318.15"], ["101"], ["1.4854", "0.003"]], [["0.01804"], ["323.15"], ["101"], ["1.4834", "0.003"]], [["0.01804"], ["328.15"], ["101"], ["1.4815", "0.003"]]], "solvent": null, "expmeth": "Standard Abbe refractometry", "constr": [], "ref": {"title": "Study on the polarity and molar surface Gibbs energy of ether-based amino acid ionic liquids [COC4mim][Gly], [COC4mim][Ala] and [COC4mim][Thr]", "full": "Zhao, Y.; Lv, J.; Liu, H.; Wu, J.; Tong, J. (2021) J. Mol. Liq. 336, 116094."}, "phases": ["Liquid"]}