{"constr": [], "ref": {"full": "Srinivasa Reddy, M.; Khan, I.; Raju, K. T. S. S.; Suresh, P.; Hari Babu, B. (2016) J. Chem. Thermodyn. 98, 298-308.", "title": "The study of molecular interactions in 1-ethyl-3-methylimidazolium trifluoromethanesulfonate + 1-pentanol from density, speed of sound and refractive index measurements"}, "phases": ["Liquid"], "components": [{"sample": [["Source:", "commercial source"], ["Initial purification:", "gas chromatography"], ["Initial purity:", "99 mass %"], ["Final purification:", "Karl Fischer titration"], ["Final purity:", "0.005 water mass %(fractional distillation)"]], "mw": "88.15", "idout": "AAQxal", "formula": "C<SUB>5</SUB>H<SUB>12</SUB>O", "name": "pentan-1-ol"}, {"sample": [["Source:", "commercial source"], ["Initial purification:", "stated by supplier"], ["Initial purity:", "99 mass %"], ["Final purification:", "Karl Fischer titration"], ["Final purity:", "0.005 water mass %(dried by vacuum heating)"]], "mw": "260.23", "idout": "AAyCVz", "formula": "C<SUB>7</SUB>H<SUB>11</SUB>F<SUB>3</SUB>N<SUB>2</SUB>O<SUB>3</SUB>S", "name": "1-ethyl-3-methylimidazolium trifluoromethanesulfonate"}], "title": "Refraction, surface tension, and speed of sound: Refractive index (Na D-line)", "dhead": [["Temperature, K", null], ["Mole fraction of 1-ethyl-3-methylimidazolium trifluoromethanesulfonate", "Liquid"], ["Pressure, kPa", null], ["Refractive index (Na D-line)", "Liquid"]], "data": [[["298.15"], ["0"], ["101.3"], ["1.4079", "0.00037"]], [["298.15"], ["0.0521"], ["101.3"], ["1.4102", "0.00037"]], [["298.15"], ["0.1002"], ["101.3"], ["1.4122", "0.00037"]], [["298.15"], ["0.1485"], ["101.3"], ["1.41412", "0.00037"]], [["298.15"], ["0.1915"], ["101.3"], ["1.41577", "0.00037"]], [["298.15"], ["0.2792"], ["101.3"], ["1.41877", "0.00037"]], [["298.15"], ["0.4059"], ["101.3"], ["1.42259", "0.00037"]], [["298.15"], ["0.4298"], ["101.3"], ["1.42325", "0.00037"]], [["298.15"], ["0.5643"], ["101.3"], ["1.42632", "0.00037"]], [["298.15"], ["0.6703"], ["101.3"], ["1.42839", "0.00037"]], [["298.15"], ["0.7635"], ["101.3"], ["1.42996", "0.00037"]], [["298.15"], ["0.8284"], ["101.3"], ["1.43112", "0.00037"]], [["298.15"], ["0.892"], ["101.3"], ["1.43212", "0.00037"]], [["298.15"], ["0.9493"], ["101.3"], ["1.43301", "0.00037"]], [["298.15"], ["1"], ["101.3"], ["1.43381", "0.00037"]], [["308.15"], ["0"], ["101.3"], ["1.40379", "0.00037"]], [["308.15"], ["0.0521"], ["101.3"], ["1.4062", "0.00037"]], [["308.15"], ["0.1002"], ["101.3"], ["1.40831", "0.00037"]], [["308.15"], ["0.1485"], ["101.3"], ["1.41032", "0.00037"]], [["308.15"], ["0.1915"], ["101.3"], ["1.41206", "0.00037"]], [["308.15"], ["0.2792"], ["101.3"], ["1.41519", "0.00037"]], [["308.15"], ["0.4059"], ["101.3"], ["1.41918", "0.00037"]], [["308.15"], ["0.4298"], ["101.3"], ["1.41986", "0.00037"]], [["308.15"], ["0.5643"], ["101.3"], ["1.42305", "0.00037"]], [["308.15"], ["0.6703"], ["101.3"], ["1.4252", "0.00037"]], [["308.15"], ["0.7635"], ["101.3"], ["1.42682", "0.00037"]], [["308.15"], ["0.8284"], ["101.3"], ["1.42802", "0.00037"]], [["308.15"], ["0.892"], ["101.3"], ["1.42907", "0.00037"]], [["308.15"], ["0.9493"], ["101.3"], ["1.42999", "0.00037"]], [["308.15"], ["1"], ["101.3"], ["1.43081", "0.00037"]], [["318.15"], ["0"], ["101.3"], ["1.3997", "0.00037"]], [["318.15"], ["0.0521"], ["101.3"], ["1.40218", "0.00037"]], [["318.15"], ["0.1002"], ["101.3"], ["1.40433", "0.00037"]], [["318.15"], ["0.1485"], ["101.3"], ["1.40639", "0.00037"]], [["318.15"], ["0.1915"], ["101.3"], ["1.40817", "0.00037"]], [["318.15"], ["0.2792"], ["101.3"], ["1.41137", "0.00037"]], [["318.15"], ["0.4059"], ["101.3"], ["1.41545", "0.00037"]], [["318.15"], ["0.4298"], ["101.3"], ["1.41615", "0.00037"]], [["318.15"], ["0.5643"], ["101.3"], ["1.41939", "0.00037"]], [["318.15"], ["0.6703"], ["101.3"], ["1.42155", "0.00037"]], [["318.15"], ["0.7635"], ["101.3"], ["1.42317", "0.00037"]], [["318.15"], ["0.8284"], ["101.3"], ["1.42437", "0.00037"]], [["318.15"], ["0.892"], ["101.3"], ["1.42545", "0.00037"]], [["318.15"], ["0.9493"], ["101.3"], ["1.42638", "0.00037"]], [["318.15"], ["1"], ["101.3"], ["1.42719", "0.00037"]], [["328.15"], ["0"], ["101.3"], ["1.39542", "0.00037"]], [["328.15"], ["0.0521"], ["101.3"], ["1.39803", "0.00037"]], [["328.15"], ["0.1002"], ["101.3"], ["1.40034", "0.00037"]], [["328.15"], ["0.1485"], ["101.3"], ["1.40256", "0.00037"]], [["328.15"], ["0.1915"], ["101.3"], ["1.40448", "0.00037"]], [["328.15"], ["0.2792"], ["101.3"], ["1.40788", "0.00037"]], [["328.15"], ["0.4059"], ["101.3"], ["1.41211", "0.00037"]], [["328.15"], ["0.4298"], ["101.3"], ["1.41285", "0.00037"]], [["328.15"], ["0.5643"], ["101.3"], ["1.41631", "0.00037"]], [["328.15"], ["0.6703"], ["101.3"], ["1.41854", "0.00037"]], [["328.15"], ["0.7635"], ["101.3"], ["1.42017", "0.00037"]], [["328.15"], ["0.8284"], ["101.3"], ["1.42144", "0.00037"]], [["328.15"], ["0.892"], ["101.3"], ["1.42257", "0.00037"]], [["328.15"], ["0.9493"], ["101.3"], ["1.42357", "0.00037"]], [["328.15"], ["1"], ["101.3"], ["1.4244", "0.00037"]]], "solvent": null, "footer": "", "expmeth": "Standard Abbe refractometry"}