{"phases": ["Liquid mixture 2", "Liquid mixture 1"], "constr": [], "ref": {"full": "Zheng, P.; Zhang, X.; Yin, T.; Shen, W. (2016) J. Chem. Thermodyn. 95, 26-34.", "title": "(Liquid + liquid) phase equilibria of binary mixtures 1-butyl-3-methylimidazolium tetrafluoroborate and tert-butanol or 1,2-butanediol"}, "expmeth": "Standard Abbe refractometry", "solvent": null, "data": [[["288.502"], ["85"], ["632.8"], ["1.4268", "0.0004"]], [["290.071"], ["85"], ["632.8"], ["1.4266", "0.0004"]], [["291.226"], ["85"], ["632.8"], ["1.4265", "0.0004"]], [["292.209"], ["85"], ["632.8"], ["1.4264", "0.0004"]], [["292.98"], ["85"], ["632.8"], ["1.4264", "0.0004"]], [["293.652"], ["85"], ["632.8"], ["1.4264", "0.0004"]], [["294.195"], ["85"], ["632.8"], ["1.4264", "0.0004"]], [["294.703"], ["85"], ["632.8"], ["1.4264", "0.0004"]], [["295.159"], ["85"], ["632.8"], ["1.4264", "0.0004"]], [["295.583"], ["85"], ["632.8"], ["1.4264", "0.0004"]], [["295.965"], ["85"], ["632.8"], ["1.4265", "0.0004"]], [["296.439"], ["85"], ["632.8"], ["1.4266", "0.0004"]], [["296.841"], ["85"], ["632.8"], ["1.4267", "0.0004"]], [["297.14"], ["85"], ["632.8"], ["1.4268", "0.0004"]], [["297.444"], ["85"], ["632.8"], ["1.4269", "0.0004"]], [["297.651"], ["85"], ["632.8"], ["1.427", "0.0004"]], [["297.843"], ["85"], ["632.8"], ["1.4272", "0.0004"]], [["297.959"], ["85"], ["632.8"], ["1.4273", "0.0004"]], [["298.057"], ["85"], ["632.8"], ["1.4274", "0.0004"]], [["298.155"], ["85"], ["632.8"], ["1.4275", "0.0004"]], [["298.258"], ["85"], ["632.8"], ["1.4276", "0.0004"]], [["298.333"], ["85"], ["632.8"], ["1.4277", "0.0004"]], [["298.42"], ["85"], ["632.8"], ["1.4278", "0.0004"]], [["298.5"], ["85"], ["632.8"], ["1.4279", "0.0004"]], [["298.578"], ["85"], ["632.8"], ["1.4281", "0.0004"]], [["298.631"], ["85"], ["632.8"], ["1.4282", "0.0004"]], [["298.67"], ["85"], ["632.8"], ["1.4284", "0.0004"]], [["298.707"], ["85"], ["632.8"], ["1.4285", "0.0005"]], [["298.727"], ["85"], ["632.8"], ["1.4286", "0.0005"]], [["298.745"], ["85"], ["632.8"], ["1.4288", "0.0005"]], [["298.766"], ["85"], ["632.8"], ["1.4289", "0.0005"]], [["298.785"], ["85"], ["632.8"], ["1.4291", "0.0005"]], [["298.792"], ["85"], ["632.8"], ["1.4293", "0.0006"]]], "footer": "", "dhead": [["Temperature, K", null], ["Pressure, kPa", null], ["Wavelength, A", "Liquid mixture 2"], ["Refractive index", "Liquid mixture 2"]], "components": [{"sample": [["Source:", "commercial source"], ["Initial purification:", "stated by supplier"], ["Initial purity:", "99 mass %"], ["Final purification:", "Karl Fischer titration"], ["Final purity:", "0.0261 water mass %(molecular sieve treatment)"]], "idout": "AARRxF", "mw": "90.12", "name": "1,2-butanediol", "formula": "C<SUB>4</SUB>H<SUB>10</SUB>O<SUB>2</SUB>"}, {"idout": "AArYBF", "mw": "226.03", "name": "1-butyl-3-methylimidazolium tetrafluoroborate", "formula": "C<SUB>8</SUB>H<SUB>15</SUB>BF<SUB>4</SUB>N<SUB>2</SUB>", "sample": [["Source:", "commercial source"], ["Initial purification:", "stated by supplier"], ["Initial purity:", "99 mass %"], ["Final purification:", "Karl Fischer titration"], ["Final purity:", "0.018 water mass %(dried in a desiccator;dried by vacuum heating)"]]}], "title": "Refraction, surface tension, and speed of sound: Refractive index"}