{"dhead": [["Mole fraction of 1-butyl-3-methylimidazolium tetrafluoroborate", "Liquid"], ["Pressure, kPa", null], ["Temperature, K", null], ["Refractive index (Na D-line)", "Liquid"]], "title": "Refraction, surface tension, and speed of sound: Refractive index (Na D-line)", "components": [{"sample": [["Source:", "commercial source"], ["Purification:", "stated by supplier"], ["Purity:", "99.8 % (basis not specified)"]], "formula": "CH<SUB>4</SUB>O", "name": "methanol", "idout": "AAGIBL", "mw": "32.04"}, {"sample": [["Source:", "commercial source"], ["Purification:", "stated by supplier"], ["Initial purity:", "99.8 % (basis not specified)"], ["Final purity:", "0.08 halide impurity mass %(dried by vacuum heating)"]], "formula": "C<SUB>8</SUB>H<SUB>15</SUB>BF<SUB>4</SUB>N<SUB>2</SUB>", "name": "1-butyl-3-methylimidazolium tetrafluoroborate", "idout": "AArYBF", "mw": "226.03"}], "expmeth": "Standard Abbe refractometry", "footer": "", "data": [[["0.0988"], ["101"], ["298.15"], ["1.3634", "0.0006"]], [["0.1505"], ["101"], ["298.15"], ["1.3735", "0.0006"]], [["0.2541"], ["101"], ["298.15"], ["1.3894", "0.0006"]], [["0.3169"], ["101"], ["298.15"], ["1.3957", "0.0006"]], [["0.3493"], ["101"], ["298.15"], ["1.3981", "0.0006"]], [["0.4517"], ["101"], ["298.15"], ["1.405", "0.0006"]], [["0.574"], ["101"], ["298.15"], ["1.4104", "0.0006"]], [["0.6729"], ["101"], ["298.15"], ["1.414", "0.0006"]], [["0.7342"], ["101"], ["298.15"], ["1.4161", "0.0006"]], [["0.7847"], ["101"], ["298.15"], ["1.4173", "0.0006"]], [["0.8423"], ["101"], ["298.15"], ["1.4188", "0.0006"]], [["0.9038"], ["101"], ["298.15"], ["1.4201", "0.0006"]]], "solvent": null, "constr": [], "ref": {"full": "Iglesias-Otero, M. A.; Troncoso, J.; Carballo, E. (2007) J. Solution Chem. 36, 1219-1230.", "title": "Density and Refractive Index for Binary Systems of the Ionic Liquid [Bmim][BF4] with Methanol, 1,3-Dichloropropane, and Dimethyl Carbonate"}, "phases": ["Liquid"]}