{"constr": [], "ref": {"title": "Thermodynamic Properties of Ionic Liquids in Organic Solvents from (293.15 to 303.15) K", "full": "Pereiro, A. B.; Rodriguez, A. (2007) J. Chem. Eng. Data 52(2), 600-608."}, "phases": ["Liquid"], "components": [{"sample": [["Source:", "commercial source"], ["Purification:", "gas chromatography"], ["Purity:", "99.7 mass %(de-gassed by boiling or ultrasonically;molecular sieve treatment)"]], "formula": "C<SUB>3</SUB>H<SUB>8</SUB>O", "name": "propan-2-ol", "mw": "60.10", "idout": "AALcwx"}, {"name": "1,3-dimethylimidazolium methylsulfate", "formula": "C<SUB>6</SUB>H<SUB>12</SUB>N<SUB>2</SUB>O<SUB>4</SUB>S", "idout": "AAoCnc", "mw": "208.23", "sample": [["Source:", "commercial source"], ["Purification:", "Karl Fischer titration;gas chromatography"], ["Purity:", "0.03 water mass %;98 mass %(dried by vacuum heating)"]]}], "title": "Refraction, surface tension, and speed of sound: Refractive index (Na D-line)", "dhead": [["Temperature, K", null], ["Mole fraction of 1,3-dimethylimidazolium methylsulfate", "Liquid"], ["Pressure, kPa", null], ["Refractive index (Na D-line)", "Liquid"]], "solvent": null, "data": [[["293.15"], ["0"], ["101"], ["1.37707", "0.00075"]], [["293.15"], ["0.049"], ["101"], ["1.38865", "0.00075"]], [["293.15"], ["0.0981"], ["101"], ["1.39897", "0.00067"]], [["293.15"], ["0.1987"], ["101"], ["1.41695", "0.00064"]], [["293.15"], ["0.2961"], ["101"], ["1.43085", "0.00065"]], [["293.15"], ["0.4055"], ["101"], ["1.44372", "0.00066"]], [["293.15"], ["0.5043"], ["101"], ["1.45335", "0.00068"]], [["293.15"], ["0.5987"], ["101"], ["1.46137", "0.00069"]], [["293.15"], ["0.6937"], ["101"], ["1.46768", "0.00072"]], [["293.15"], ["0.7992"], ["101"], ["1.47404", "0.00073"]], [["293.15"], ["0.9042"], ["101"], ["1.47881", "0.00077"]], [["293.15"], ["0.9502"], ["101"], ["1.48087", "0.00079"]], [["293.15"], ["1"], ["101"], ["1.48392", "0.00078"]], [["298.15"], ["0"], ["101"], ["1.37496", "0.00076"]], [["298.15"], ["0.049"], ["101"], ["1.38617", "0.00079"]], [["298.15"], ["0.0981"], ["101"], ["1.39708", "0.00074"]], [["298.15"], ["0.1987"], ["101"], ["1.41521", "0.00068"]], [["298.15"], ["0.2961"], ["101"], ["1.42948", "0.00067"]], [["298.15"], ["0.4055"], ["101"], ["1.44245", "0.00069"]], [["298.15"], ["0.5043"], ["101"], ["1.45208", "0.00071"]], [["298.15"], ["0.5987"], ["101"], ["1.46001", "0.00074"]], [["298.15"], ["0.6937"], ["101"], ["1.46641", "0.00074"]], [["298.15"], ["0.7992"], ["101"], ["1.4725", "0.00076"]], [["298.15"], ["0.9042"], ["101"], ["1.47743", "0.00077"]], [["298.15"], ["0.9502"], ["101"], ["1.4796", "0.00078"]], [["298.15"], ["1"], ["101"], ["1.4827", "0.00078"]], [["303.15"], ["0"], ["101"], ["1.37278", "0.00076"]], [["303.15"], ["0.049"], ["101"], ["1.38391", "0.00077"]], [["303.15"], ["0.0981"], ["101"], ["1.39509", "0.00083"]], [["303.15"], ["0.1987"], ["101"], ["1.41455", "0.00077"]], [["303.15"], ["0.2961"], ["101"], ["1.42882", "0.00072"]], [["303.15"], ["0.4055"], ["101"], ["1.44156", "0.00074"]], [["303.15"], ["0.5043"], ["101"], ["1.45073", "0.00075"]], [["303.15"], ["0.5987"], ["101"], ["1.45836", "0.00079"]], [["303.15"], ["0.6937"], ["101"], ["1.46482", "0.00078"]], [["303.15"], ["0.7992"], ["101"], ["1.47103", "0.0008"]], [["303.15"], ["0.9042"], ["101"], ["1.47603", "0.00077"]], [["303.15"], ["0.9502"], ["101"], ["1.4782", "0.00076"]], [["303.15"], ["1"], ["101"], ["1.48129", "0.00079"]]], "footer": "", "expmeth": "Standard Abbe refractometry"}