{"phases": ["Liquid mixture 1", "Liquid mixture 2"], "ref": {"title": "Liquid-Liquid Coexistence Curves of {x 1-Butyl-3-methylimidazolium Tetrafluoroborate + (1 - x) 1,3-Propanediol} and {x 1-Butyl-3-methylimidazolium Tetrafluoroborate + (1 - x) 1,4-Butanediol}", "full": "Lv, H.; Guo, Y.; An, X.; Sheng, W. (2010) J. Chem. Eng. Data 55(7), 2482-2488."}, "constr": [], "footer": "", "solvent": null, "data": [[["290.349"], ["101"], ["632.8"], ["1.4446", "0.0004"]], [["292.947"], ["101"], ["632.8"], ["1.4436", "0.0004"]], [["294.517"], ["101"], ["632.8"], ["1.443", "0.0004"]], [["296.094"], ["101"], ["632.8"], ["1.4424", "0.0004"]], [["297.433"], ["101"], ["632.8"], ["1.4416", "0.0004"]], [["298.671"], ["101"], ["632.8"], ["1.441", "0.0004"]], [["299.609"], ["101"], ["632.8"], ["1.4406", "0.0004"]], [["300.631"], ["101"], ["632.8"], ["1.4402", "0.0004"]], [["301.615"], ["101"], ["632.8"], ["1.4397", "0.0004"]], [["302.478"], ["101"], ["632.8"], ["1.4392", "0.0004"]], [["303.338"], ["101"], ["632.8"], ["1.4387", "0.0004"]], [["304.236"], ["101"], ["632.8"], ["1.4382", "0.0004"]], [["304.915"], ["101"], ["632.8"], ["1.4376", "0.0004"]], [["305.626"], ["101"], ["632.8"], ["1.4371", "0.0004"]], [["306.233"], ["101"], ["632.8"], ["1.4367", "0.0004"]], [["306.77"], ["101"], ["632.8"], ["1.4363", "0.0004"]], [["307.34"], ["101"], ["632.8"], ["1.4357", "0.0004"]], [["307.752"], ["101"], ["632.8"], ["1.4353", "0.0004"]], [["308.14"], ["101"], ["632.8"], ["1.4348", "0.0004"]], [["308.401"], ["101"], ["632.8"], ["1.4345", "0.0004"]], [["308.626"], ["101"], ["632.8"], ["1.4342", "0.0004"]], [["308.8"], ["101"], ["632.8"], ["1.434", "0.0004"]], [["308.923"], ["101"], ["632.8"], ["1.4337", "0.0004"]], [["309.028"], ["101"], ["632.8"], ["1.4335", "0.0004"]], [["309.123"], ["101"], ["632.8"], ["1.4334", "0.0004"]], [["309.215"], ["101"], ["632.8"], ["1.4332", "0.0004"]], [["309.295"], ["101"], ["632.8"], ["1.4329", "0.0004"]], [["309.387"], ["101"], ["632.8"], ["1.4325", "0.0004"]], [["309.456"], ["101"], ["632.8"], ["1.4323", "0.0004"]], [["309.501"], ["101"], ["632.8"], ["1.4321", "0.0004"]], [["309.54"], ["101"], ["632.8"], ["1.4319", "0.0004"]], [["309.558"], ["101"], ["632.8"], ["1.4318", "0.0004"]], [["309.58"], ["101"], ["632.8"], ["1.4315", "0.0004"]], [["309.609"], ["101"], ["632.8"], ["1.431", "0.0004"]]], "expmeth": "Standard Abbe refractometry", "title": "Refraction, surface tension, and speed of sound: Refractive index", "components": [{"mw": "90.12", "idout": "AARRzH", "name": "1,4-butanediol", "formula": "C<SUB>4</SUB>H<SUB>10</SUB>O<SUB>2</SUB>", "sample": [["Source:", "commercial source"], ["Purification:", "stated by supplier"], ["Purity:", "99 % (basis not specified)"], ["Purity analysis:", "molecular sieve treatment"]]}, {"sample": [["Source:", "commercial source"], ["Purification:", "stated by supplier"], ["Purity:", "99 % (basis not specified)"]], "mw": "226.03", "idout": "AArYBF", "formula": "C<SUB>8</SUB>H<SUB>15</SUB>BF<SUB>4</SUB>N<SUB>2</SUB>", "name": "1-butyl-3-methylimidazolium tetrafluoroborate"}], "dhead": [["Temperature, K", null], ["Pressure, kPa", null], ["Wavelength, A", "Liquid mixture 1"], ["Refractive index", "Liquid mixture 1"]]}