{"constr": [], "ref": {"title": "Thermodynamic behavior of {ethanol + butylpyridinium tetrafluoroborate} binary solution in the critical region", "full": "Tao, X.; Yin, T.; Xu, C.; Shen, W. (2017) J. Chem. Thermodyn. 110, 211-217."}, "phases": ["Liquid"], "components": [{"sample": [["Source:", "commercial source"], ["Initial purification:", "stated by supplier"], ["Initial purity:", "99.5 mass %"], ["Final purification:", "Karl Fischer titration"], ["Final purity:", "0.0040 water mass %(molecular sieve treatment)"]], "formula": "C<SUB>2</SUB>H<SUB>6</SUB>O", "name": "ethanol", "mw": "46.07", "idout": "AAIsrh"}, {"idout": "AAquMR", "mw": "223.02", "formula": "C<SUB>9</SUB>H<SUB>14</SUB>BF<SUB>4</SUB>N", "name": "1-butylpyridinium tetrafluoroborate", "sample": [["Source:", "commercial source"], ["Initial purification:", "stated by supplier"], ["Initial purity:", "99 mass %"], ["Final purification:", "Karl Fischer titration"], ["Final purity:", "0.0520 water mass %(dried in a desiccator;dried by vacuum heating)"]]}], "title": "Refraction, surface tension, and speed of sound: Refractive index", "dhead": [["Temperature, K", null], ["Mole fraction of 1-butylpyridinium tetrafluoroborate", "Liquid"], ["Pressure, kPa", null], ["Wavelength, A", "Liquid"], ["Refractive index", "Liquid"]], "data": [[["281.729"], ["1"], ["100"], ["632.8"], ["1.4481", "0.0003"]], [["282.035"], ["0"], ["100"], ["632.8"], ["1.3645", "0.0002"]], [["282.782"], ["1"], ["100"], ["632.8"], ["1.4478", "0.0003"]], [["283.113"], ["0"], ["100"], ["632.8"], ["1.364", "0.0002"]], [["284.035"], ["0"], ["100"], ["632.8"], ["1.3637", "0.0002"]], [["284.047"], ["0.518"], ["100"], ["632.8"], ["1.4307", "0.0003"]], [["284.14"], ["1"], ["100"], ["632.8"], ["1.4475", "0.0003"]], [["284.676"], ["0.394"], ["100"], ["632.8"], ["1.4224", "0.0004"]], [["285.333"], ["0.518"], ["100"], ["632.8"], ["1.4304", "0.0003"]], [["285.647"], ["0"], ["100"], ["632.8"], ["1.363", "0.0002"]], [["285.742"], ["1"], ["100"], ["632.8"], ["1.4471", "0.0003"]], [["286.417"], ["0.394"], ["100"], ["632.8"], ["1.4219", "0.0004"]], [["286.623"], ["0"], ["100"], ["632.8"], ["1.3626", "0.0002"]], [["286.943"], ["1"], ["100"], ["632.8"], ["1.4468", "0.0003"]], [["287.46"], ["0.02"], ["100"], ["632.8"], ["1.3684", "0.0004"]], [["287.509"], ["0.518"], ["100"], ["632.8"], ["1.4298", "0.0003"]], [["287.675"], ["0.394"], ["100"], ["632.8"], ["1.4215", "0.0004"]], [["288.169"], ["0"], ["100"], ["632.8"], ["1.362", "0.0002"]], [["288.237"], ["1"], ["100"], ["632.8"], ["1.4464", "0.0003"]], [["288.687"], ["0.518"], ["100"], ["632.8"], ["1.4295", "0.0003"]], [["288.708"], ["0.02"], ["100"], ["632.8"], ["1.3679", "0.0004"]], [["289.328"], ["0"], ["100"], ["632.8"], ["1.3615", "0.0002"]], [["289.369"], ["0.394"], ["100"], ["632.8"], ["1.4211", "0.0003"]], [["289.379"], ["1"], ["100"], ["632.8"], ["1.4461", "0.0003"]], [["289.819"], ["0.02"], ["100"], ["632.8"], ["1.3675", "0.0004"]], [["290.139"], ["0.518"], ["100"], ["632.8"], ["1.429", "0.0003"]], [["290.31"], ["0.394"], ["100"], ["632.8"], ["1.4207", "0.0003"]], [["290.372"], ["1"], ["100"], ["632.8"], ["1.4458", "0.0003"]], [["290.465"], ["0.313"], ["100"], ["632.8"], ["1.414", "0.0004"]], [["290.803"], ["0"], ["100"], ["632.8"], ["1.3609", "0.0002"]], [["291.257"], ["0.02"], ["100"], ["632.8"], ["1.3669", "0.0004"]], [["291.415"], ["0.518"], ["100"], ["632.8"], ["1.4287", "0.0003"]], [["291.416"], ["0.394"], ["100"], ["632.8"], ["1.4204", "0.0003"]], [["291.841"], ["0"], ["100"], ["632.8"], ["1.3604", "0.0002"]], [["292.083"], ["0.313"], ["100"], ["632.8"], ["1.4134", "0.0004"]], [["292.155"], ["1"], ["100"], ["632.8"], ["1.4454", "0.0003"]], [["292.642"], ["0.02"], ["100"], ["632.8"], ["1.3663", "0.0004"]], [["292.941"], ["0"], ["100"], ["632.8"], ["1.36", "0.0002"]], [["293.102"], ["0.313"], ["100"], ["632.8"], ["1.4131", "0.0004"]], [["293.406"], ["1"], ["100"], ["632.8"], ["1.4451", "0.0003"]], [["293.773"], ["0"], ["100"], ["632.8"], ["1.3596", "0.0002"]], [["294.227"], ["0.313"], ["100"], ["632.8"], ["1.4128", "0.0004"]], [["294.377"], ["0.02"], ["100"], ["632.8"], ["1.3657", "0.0004"]], [["295.001"], ["1"], ["100"], ["632.8"], ["1.4446", "0.0003"]], [["295.321"], ["0.313"], ["100"], ["632.8"], ["1.4124", "0.0003"]], [["295.494"], ["0"], ["100"], ["632.8"], ["1.3589", "0.0002"]], [["296.195"], ["0.258"], ["100"], ["632.8"], ["1.4062", "0.0003"]], [["296.345"], ["0.199"], ["100"], ["632.8"], ["1.3993", "0.0003"]], [["296.345"], ["0.313"], ["100"], ["632.8"], ["1.4121", "0.0003"]], [["296.506"], ["0"], ["100"], ["632.8"], ["1.3585", "0.0002"]], [["296.889"], ["1"], ["100"], ["632.8"], ["1.444", "0.0003"]], [["296.983"], ["0.06"], ["100"], ["632.8"], ["1.3745", "0.0005"]], [["296.983"], ["0.142"], ["100"], ["632.8"], ["1.3902", "0.0004"]], [["297.251"], ["0.095"], ["100"], ["632.8"], ["1.3817", "0.0004"]], [["297.437"], ["0"], ["100"], ["632.8"], ["1.3581", "0.0002"]], [["297.52"], ["0.258"], ["100"], ["632.8"], ["1.4056", "0.0004"]], [["298.062"], ["0.142"], ["100"], ["632.8"], ["1.3899", "0.0005"]], [["298.136"], ["0"], ["100"], ["632.8"], ["1.3578", "0.0002"]], [["298.214"], ["0.06"], ["100"], ["632.8"], ["1.374", "0.0005"]], [["298.514"], ["0.199"], ["100"], ["632.8"], ["1.3986", "0.0004"]], [["298.563"], ["0.095"], ["100"], ["632.8"], ["1.3813", "0.0004"]], [["298.9"], ["0.258"], ["100"], ["632.8"], ["1.4052", "0.0003"]], [["299.342"], ["0.142"], ["100"], ["632.8"], ["1.3895", "0.0004"]], [["299.429"], ["0.06"], ["100"], ["632.8"], ["1.3736", "0.0005"]], [["299.576"], ["0.199"], ["100"], ["632.8"], ["1.3982", "0.0004"]], [["299.67"], ["0.095"], ["100"], ["632.8"], ["1.3809", "0.0004"]], [["299.977"], ["0.258"], ["100"], ["632.8"], ["1.4048", "0.0003"]], [["300.342"], ["0.142"], ["100"], ["632.8"], ["1.3892", "0.0004"]], [["300.787"], ["0.095"], ["100"], ["632.8"], ["1.3805", "0.0004"]], [["300.893"], ["0.06"], ["100"], ["632.8"], ["1.3731", "0.0005"]], [["300.952"], ["0.258"], ["100"], ["632.8"], ["1.4046", "0.0003"]], [["301.095"], ["0.199"], ["100"], ["632.8"], ["1.3977", "0.0004"]], [["301.774"], ["0.095"], ["100"], ["632.8"], ["1.3802", "0.0004"]], [["301.775"], ["0.142"], ["100"], ["632.8"], ["1.3886", "0.0004"]], [["301.924"], ["0.258"], ["100"], ["632.8"], ["1.4043", "0.0003"]], [["302.079"], ["0.06"], ["100"], ["632.8"], ["1.3726", "0.0005"]], [["302.157"], ["0.199"], ["100"], ["632.8"], ["1.3974", "0.0003"]], [["302.925"], ["0.095"], ["100"], ["632.8"], ["1.3798", "0.0004"]], [["302.938"], ["0.142"], ["100"], ["632.8"], ["1.3883", "0.0004"]], [["303.304"], ["0.199"], ["100"], ["632.8"], ["1.397", "0.0004"]], [["303.307"], ["0.06"], ["100"], ["632.8"], ["1.3722", "0.0005"]]], "solvent": null, "footer": "", "expmeth": "minimum deviation angle method"}