{"phases": ["Liquid"], "ref": {"title": "Density and Melting Points for the Binary Mixtures Dimethyl Sulfoxide (DMSO) + 1-Ethyl-3-methylimidazolium Acetate and DMSO + Choline Acetate", "full": "Nisa, L. d. P.; Mugang, M.; Bermejo, M. D.; Puras, J. J. S.; Prez, E. (2019) J. Chem. Eng. Data 64(7), 2923-2928."}, "constr": [], "expmeth": "Vibrating tube method", "footer": "", "data": [[["293.15"], ["0.018"], ["100"], ["1101.7", "0.5"]], [["303.15"], ["0.018"], ["100"], ["1095.6", "0.5"]], [["313.15"], ["0.018"], ["100"], ["1089.6", "0.5"]], [["323.15"], ["0.018"], ["100"], ["1083.7", "0.5"]], [["333.15"], ["0.018"], ["100"], ["1077.7", "0.5"]], [["343.15"], ["0.018"], ["100"], ["1071.8", "0.5"]], [["353.15"], ["0.018"], ["100"], ["1065.9", "0.5"]], [["363.15"], ["0.018"], ["100"], ["1060", "0.5"]], [["373.15"], ["0.018"], ["100"], ["1054.2", "0.5"]]], "solvent": null, "dhead": [["Temperature, K", null], ["Mole fraction of water", "Liquid"], ["Pressure, kPa", null], ["Specific density, kg/m<SUP>3</SUP>", "Liquid"]], "title": "Volumetric properties: Specific density", "components": [{"idout": "AAgmaR", "mw": "170.21", "formula": "C<SUB>8</SUB>H<SUB>14</SUB>N<SUB>2</SUB>O<SUB>2</SUB>", "name": "1-ethyl-3-methylimidazolium acetate", "sample": [["Source:", "commercial source"], ["Initial purification:", "stated by supplier"], ["Initial purity:", "99.6 mass %"], ["Final purification:", "Karl Fischer titration"], ["Final purity:", "0.193 water mass %(dried by vacuum heating)"]]}, {"sample": [["Source:", "commercial source"], ["Purification:", "estimated by the compiler"], ["Purity:", "99.9 mass %"]], "mw": "18.02", "idout": "AADYJk", "name": "water", "formula": "H<SUB>2</SUB>O"}]}