{"ref": {"full": "Iglesias-Otero, M. A.; Troncoso, J.; Carballo, E. (2007) J. Solution Chem. 36, 1219-1230.", "title": "Density and Refractive Index for Binary Systems of the Ionic Liquid [Bmim][BF4] with Methanol, 1,3-Dichloropropane, and Dimethyl Carbonate"}, "constr": [], "phases": ["Liquid"], "dhead": [["Temperature, K", null], ["Mole fraction of 1-butyl-3-methylimidazolium tetrafluoroborate", "Liquid"], ["Pressure, kPa", null], ["Specific density, kg/m<SUP>3</SUP>", "Liquid"]], "title": "Volumetric properties: Specific density", "components": [{"sample": [["Source:", "commercial source"], ["Purification:", "stated by supplier"], ["Purity:", "99.8 % (basis not specified)"]], "idout": "AAGIBL", "mw": "32.04", "formula": "CH<SUB>4</SUB>O", "name": "methanol"}, {"name": "1-butyl-3-methylimidazolium tetrafluoroborate", "formula": "C<SUB>8</SUB>H<SUB>15</SUB>BF<SUB>4</SUB>N<SUB>2</SUB>", "mw": "226.03", "idout": "AArYBF", "sample": [["Source:", "commercial source"], ["Purification:", "stated by supplier"], ["Initial purity:", "99.8 % (basis not specified)"], ["Final purity:", "0.08 halide impurity mass %(dried by vacuum heating)"]]}], "expmeth": "Vibrating tube method", "footer": "", "data": [[["293.15"], ["0"], ["101"], ["791.3", "0.9"]], [["293.15"], ["0.0486"], ["101"], ["877.2", "0.7"]], [["293.15"], ["0.0988"], ["101"], ["939.7", "0.5"]], [["293.15"], ["0.1505"], ["101"], ["987.3", "0.4"]], [["293.15"], ["0.1987"], ["101"], ["1022", "0.4"]], [["293.15"], ["0.2541"], ["101"], ["1053.4", "0.4"]], [["293.15"], ["0.3235"], ["101"], ["1084.2", "0.5"]], [["293.15"], ["0.3721"], ["101"], ["1101.5", "0.6"]], [["293.15"], ["0.4517"], ["101"], ["1124.5", "0.7"]], [["293.15"], ["0.574"], ["101"], ["1151.8", "0.7"]], [["293.15"], ["0.6729"], ["101"], ["1168.2", "0.8"]], [["293.15"], ["0.7342"], ["101"], ["1177", "0.8"]], [["293.15"], ["0.7847"], ["101"], ["1183.5", "0.8"]], [["293.15"], ["0.8423"], ["101"], ["1190.2", "0.9"]], [["293.15"], ["0.9038"], ["101"], ["1196.4", "0.9"]], [["293.15"], ["1"], ["101"], ["1204.9", "0.9"]], [["298.15"], ["0"], ["101"], ["786.5", "0.9"]], [["298.15"], ["0.0486"], ["101"], ["872.7", "0.7"]], [["298.15"], ["0.0988"], ["101"], ["935.4", "0.5"]], [["298.15"], ["0.1505"], ["101"], ["983", "0.4"]], [["298.15"], ["0.1987"], ["101"], ["1017.8", "0.4"]], [["298.15"], ["0.2541"], ["101"], ["1049.4", "0.4"]], [["298.15"], ["0.3235"], ["101"], ["1080.2", "0.5"]], [["298.15"], ["0.3721"], ["101"], ["1097.6", "0.6"]], [["298.15"], ["0.4517"], ["101"], ["1120.6", "0.6"]], [["298.15"], ["0.574"], ["101"], ["1148.1", "0.7"]], [["298.15"], ["0.6729"], ["101"], ["1164.5", "0.8"]], [["298.15"], ["0.7342"], ["101"], ["1173.3", "0.8"]], [["298.15"], ["0.7847"], ["101"], ["1179.8", "0.8"]], [["298.15"], ["0.8423"], ["101"], ["1186.5", "0.8"]], [["298.15"], ["0.9038"], ["101"], ["1192.7", "0.9"]], [["298.15"], ["1"], ["101"], ["1201.3", "0.9"]], [["303.15"], ["0"], ["101"], ["781.8", "0.9"]], [["303.15"], ["0.0486"], ["101"], ["868.2", "0.7"]], [["303.15"], ["0.0988"], ["101"], ["931", "0.5"]], [["303.15"], ["0.1505"], ["101"], ["978.8", "0.4"]], [["303.15"], ["0.1987"], ["101"], ["1013.7", "0.4"]], [["303.15"], ["0.2541"], ["101"], ["1045.3", "0.4"]], [["303.15"], ["0.3235"], ["101"], ["1076.2", "0.5"]], [["303.15"], ["0.3721"], ["101"], ["1093.6", "0.6"]], [["303.15"], ["0.4517"], ["101"], ["1116.8", "0.6"]], [["303.15"], ["0.574"], ["101"], ["1144.3", "0.7"]], [["303.15"], ["0.6729"], ["101"], ["1160.8", "0.8"]], [["303.15"], ["0.7342"], ["101"], ["1169.7", "0.8"]], [["303.15"], ["0.7847"], ["101"], ["1176.2", "0.8"]], [["303.15"], ["0.8423"], ["101"], ["1182.9", "0.8"]], [["303.15"], ["0.9038"], ["101"], ["1189.2", "0.9"]], [["303.15"], ["1"], ["101"], ["1197.8", "0.9"]], [["308.15"], ["0"], ["101"], ["777.1", "1"]], [["308.15"], ["0.0486"], ["101"], ["863.7", "0.7"]], [["308.15"], ["0.0988"], ["101"], ["926.7", "0.5"]], [["308.15"], ["0.1505"], ["101"], ["974.5", "0.4"]], [["308.15"], ["0.1987"], ["101"], ["1009.5", "0.4"]], [["308.15"], ["0.2541"], ["101"], ["1041.2", "0.4"]], [["308.15"], ["0.3235"], ["101"], ["1072.2", "0.5"]], [["308.15"], ["0.3721"], ["101"], ["1089.7", "0.5"]], [["308.15"], ["0.4517"], ["101"], ["1112.9", "0.6"]], [["308.15"], ["0.574"], ["101"], ["1140.6", "0.7"]], [["308.15"], ["0.6729"], ["101"], ["1157.1", "0.8"]], [["308.15"], ["0.7342"], ["101"], ["1166", "0.8"]], [["308.15"], ["0.7847"], ["101"], ["1172.5", "0.8"]], [["308.15"], ["0.8423"], ["101"], ["1179.3", "0.8"]], [["308.15"], ["0.9038"], ["101"], ["1185.6", "0.8"]], [["308.15"], ["1"], ["101"], ["1194.2", "0.9"]], [["313.15"], ["0"], ["101"], ["772.3", "1"]], [["313.15"], ["0.0486"], ["101"], ["859.2", "0.8"]], [["313.15"], ["0.0988"], ["101"], ["922.3", "0.5"]], [["313.15"], ["0.1505"], ["101"], ["970.3", "0.4"]], [["313.15"], ["0.1987"], ["101"], ["1005.4", "0.3"]], [["313.15"], ["0.2541"], ["101"], ["1037.2", "0.4"]], [["313.15"], ["0.3235"], ["101"], ["1068.3", "0.5"]], [["313.15"], ["0.3721"], ["101"], ["1085.8", "0.5"]], [["313.15"], ["0.4517"], ["101"], ["1109.1", "0.6"]], [["313.15"], ["0.574"], ["101"], ["1136.8", "0.7"]], [["313.15"], ["0.6729"], ["101"], ["1153.4", "0.7"]], [["313.15"], ["0.7342"], ["101"], ["1162.4", "0.8"]], [["313.15"], ["0.7847"], ["101"], ["1168.9", "0.8"]], [["313.15"], ["0.8423"], ["101"], ["1175.7", "0.8"]], [["313.15"], ["0.9038"], ["101"], ["1182", "0.8"]], [["313.15"], ["1"], ["101"], ["1190.7", "0.9"]], [["318.15"], ["0"], ["101"], ["767.5", "1"]], [["318.15"], ["0.0486"], ["101"], ["854.6", "0.8"]], [["318.15"], ["0.0988"], ["101"], ["918", "0.6"]], [["318.15"], ["0.1505"], ["101"], ["966.1", "0.4"]], [["318.15"], ["0.1987"], ["101"], ["1001.2", "0.3"]], [["318.15"], ["0.2541"], ["101"], ["1033.1", "0.4"]], [["318.15"], ["0.3235"], ["101"], ["1064.3", "0.5"]], [["318.15"], ["0.3721"], ["101"], ["1081.9", "0.5"]], [["318.15"], ["0.4517"], ["101"], ["1105.3", "0.6"]], [["318.15"], ["0.574"], ["101"], ["1133.1", "0.7"]], [["318.15"], ["0.6729"], ["101"], ["1149.7", "0.7"]], [["318.15"], ["0.7342"], ["101"], ["1158.7", "0.8"]], [["318.15"], ["0.7847"], ["101"], ["1165.3", "0.8"]], [["318.15"], ["0.8423"], ["101"], ["1172.1", "0.8"]], [["318.15"], ["0.9038"], ["101"], ["1178.4", "0.8"]], [["318.15"], ["1"], ["101"], ["1187.2", "0.8"]], [["323.15"], ["0"], ["101"], ["762.6", "1"]], [["323.15"], ["0.0486"], ["101"], ["850.1", "0.8"]], [["323.15"], ["0.0988"], ["101"], ["913.6", "0.6"]], [["323.15"], ["0.1505"], ["101"], ["961.8", "0.4"]], [["323.15"], ["0.1987"], ["101"], ["997.1", "0.3"]], [["323.15"], ["0.2541"], ["101"], ["1029.1", "0.4"]], [["323.15"], ["0.3235"], ["101"], ["1060.4", "0.5"]], [["323.15"], ["0.3721"], ["101"], ["1078", "0.5"]], [["323.15"], ["0.4517"], ["101"], ["1101.5", "0.6"]], [["323.15"], ["0.574"], ["101"], ["1129.4", "0.7"]], [["323.15"], ["0.6729"], ["101"], ["1146.1", "0.7"]], [["323.15"], ["0.7342"], ["101"], ["1155.1", "0.7"]], [["323.15"], ["0.7847"], ["101"], ["1161.7", "0.8"]], [["323.15"], ["0.8423"], ["101"], ["1168.6", "0.8"]], [["323.15"], ["0.9038"], ["101"], ["1174.9", "0.8"]], [["323.15"], ["1"], ["101"], ["1183.7", "0.8"]]], "solvent": null}