{"ref": {"title": "Density and Refractive Index for Binary Systems of the Ionic Liquid [Bmim][BF4] with Methanol, 1,3-Dichloropropane, and Dimethyl Carbonate", "full": "Iglesias-Otero, M. A.; Troncoso, J.; Carballo, E. (2007) J. Solution Chem. 36, 1219-1230."}, "constr": [], "phases": ["Liquid"], "components": [{"sample": [["Source:", "commercial source"], ["Purification:", "stated by supplier"], ["Purity:", "99 % (basis not specified)"]], "mw": "90.08", "idout": "AARQqy", "formula": "C<SUB>3</SUB>H<SUB>6</SUB>O<SUB>3</SUB>", "name": "dimethyl carbonate"}, {"sample": [["Source:", "commercial source"], ["Purification:", "stated by supplier"], ["Initial purity:", "99.8 % (basis not specified)"], ["Final purity:", "0.08 halide impurity mass %(dried by vacuum heating)"]], "formula": "C<SUB>8</SUB>H<SUB>15</SUB>BF<SUB>4</SUB>N<SUB>2</SUB>", "name": "1-butyl-3-methylimidazolium tetrafluoroborate", "idout": "AArYBF", "mw": "226.03"}], "title": "Volumetric properties: Specific density", "dhead": [["Temperature, K", null], ["Mole fraction of 1-butyl-3-methylimidazolium tetrafluoroborate", "Liquid"], ["Pressure, kPa", null], ["Specific density, kg/m<SUP>3</SUP>", "Liquid"]], "data": [[["293.15"], ["0"], ["101"], ["1069.9", "0.7"]], [["293.15"], ["0.1051"], ["101"], ["1110.7", "0.8"]], [["293.15"], ["0.1549"], ["101"], ["1122.5", "0.8"]], [["293.15"], ["0.2047"], ["101"], ["1134.6", "0.8"]], [["293.15"], ["0.2633"], ["101"], ["1145.7", "0.9"]], [["293.15"], ["0.3291"], ["101"], ["1156", "0.9"]], [["293.15"], ["0.3985"], ["101"], ["1165.2", "0.9"]], [["293.15"], ["0.5021"], ["101"], ["1175.9", "0.9"]], [["293.15"], ["0.598"], ["101"], ["1183.8", "0.9"]], [["293.15"], ["0.7168"], ["101"], ["1191.7", "0.9"]], [["293.15"], ["0.8155"], ["101"], ["1196.6", "0.9"]], [["293.15"], ["0.8848"], ["101"], ["1200.1", "0.9"]], [["293.15"], ["1"], ["101"], ["1205", "0.9"]], [["298.15"], ["0"], ["101"], ["1063.3", "0.7"]], [["298.15"], ["0.1051"], ["101"], ["1105", "0.8"]], [["298.15"], ["0.1549"], ["101"], ["1117.1", "0.8"]], [["298.15"], ["0.2047"], ["101"], ["1129.5", "0.8"]], [["298.15"], ["0.2633"], ["101"], ["1140.8", "0.9"]], [["298.15"], ["0.3291"], ["101"], ["1151.3", "0.9"]], [["298.15"], ["0.3985"], ["101"], ["1160.7", "0.9"]], [["298.15"], ["0.5021"], ["101"], ["1171.7", "0.9"]], [["298.15"], ["0.598"], ["101"], ["1179.8", "0.9"]], [["298.15"], ["0.7168"], ["101"], ["1187.9", "0.9"]], [["298.15"], ["0.8155"], ["101"], ["1192.8", "0.9"]], [["298.15"], ["0.8848"], ["101"], ["1196.4", "0.9"]], [["298.15"], ["1"], ["101"], ["1201.4", "0.9"]], [["303.15"], ["0"], ["101"], ["1056.7", "0.6"]], [["303.15"], ["0.1051"], ["101"], ["1099.4", "0.8"]], [["303.15"], ["0.1549"], ["101"], ["1111.7", "0.8"]], [["303.15"], ["0.2047"], ["101"], ["1124.4", "0.8"]], [["303.15"], ["0.2633"], ["101"], ["1136", "0.8"]], [["303.15"], ["0.3291"], ["101"], ["1146.7", "0.8"]], [["303.15"], ["0.3985"], ["101"], ["1156.3", "0.9"]], [["303.15"], ["0.5021"], ["101"], ["1167.5", "0.9"]], [["303.15"], ["0.598"], ["101"], ["1175.8", "0.9"]], [["303.15"], ["0.7168"], ["101"], ["1184", "0.9"]], [["303.15"], ["0.8155"], ["101"], ["1189.1", "0.9"]], [["303.15"], ["0.8848"], ["101"], ["1192.8", "0.9"]], [["303.15"], ["1"], ["101"], ["1197.9", "0.9"]], [["308.15"], ["0"], ["101"], ["1050.1", "0.6"]], [["308.15"], ["0.1051"], ["101"], ["1093.7", "0.7"]], [["308.15"], ["0.1549"], ["101"], ["1106.3", "0.8"]], [["308.15"], ["0.2047"], ["101"], ["1119.3", "0.8"]], [["308.15"], ["0.2633"], ["101"], ["1131.1", "0.8"]], [["308.15"], ["0.3291"], ["101"], ["1142.1", "0.8"]], [["308.15"], ["0.3985"], ["101"], ["1151.9", "0.8"]], [["308.15"], ["0.5021"], ["101"], ["1163.3", "0.9"]], [["308.15"], ["0.598"], ["101"], ["1171.8", "0.9"]], [["308.15"], ["0.7168"], ["101"], ["1180.2", "0.9"]], [["308.15"], ["0.8155"], ["101"], ["1185.4", "0.9"]], [["308.15"], ["0.8848"], ["101"], ["1189.1", "0.9"]], [["308.15"], ["1"], ["101"], ["1194.3", "0.9"]], [["313.15"], ["0"], ["101"], ["1043.4", "0.6"]], [["313.15"], ["0.1051"], ["101"], ["1088", "0.7"]], [["313.15"], ["0.1549"], ["101"], ["1100.9", "0.8"]], [["313.15"], ["0.2047"], ["101"], ["1114.2", "0.8"]], [["313.15"], ["0.2633"], ["101"], ["1126.3", "0.8"]], [["313.15"], ["0.3291"], ["101"], ["1137.5", "0.8"]], [["313.15"], ["0.3985"], ["101"], ["1147.5", "0.8"]], [["313.15"], ["0.5021"], ["101"], ["1159.2", "0.8"]], [["313.15"], ["0.598"], ["101"], ["1167.8", "0.8"]], [["313.15"], ["0.7168"], ["101"], ["1176.3", "0.9"]], [["313.15"], ["0.8155"], ["101"], ["1181.6", "0.9"]], [["313.15"], ["0.8848"], ["101"], ["1185.4", "0.9"]], [["313.15"], ["1"], ["101"], ["1190.8", "0.9"]], [["318.15"], ["0"], ["101"], ["1036.7", "0.6"]], [["318.15"], ["0.1051"], ["101"], ["1082.4", "0.7"]], [["318.15"], ["0.1549"], ["101"], ["1095.5", "0.7"]], [["318.15"], ["0.2047"], ["101"], ["1109.1", "0.8"]], [["318.15"], ["0.2633"], ["101"], ["1121.4", "0.8"]], [["318.15"], ["0.3291"], ["101"], ["1132.9", "0.8"]], [["318.15"], ["0.3985"], ["101"], ["1143.1", "0.8"]], [["318.15"], ["0.5021"], ["101"], ["1155", "0.8"]], [["318.15"], ["0.598"], ["101"], ["1163.8", "0.8"]], [["318.15"], ["0.7168"], ["101"], ["1172.5", "0.8"]], [["318.15"], ["0.8155"], ["101"], ["1177.9", "0.8"]], [["318.15"], ["0.8848"], ["101"], ["1181.8", "0.8"]], [["318.15"], ["1"], ["101"], ["1187.3", "0.8"]], [["323.15"], ["0"], ["101"], ["1030", "0.6"]], [["323.15"], ["0.1051"], ["101"], ["1076.7", "0.7"]], [["323.15"], ["0.1549"], ["101"], ["1090.1", "0.7"]], [["323.15"], ["0.2047"], ["101"], ["1104", "0.7"]], [["323.15"], ["0.2633"], ["101"], ["1116.6", "0.8"]], [["323.15"], ["0.3291"], ["101"], ["1128.3", "0.8"]], [["323.15"], ["0.3985"], ["101"], ["1138.7", "0.8"]], [["323.15"], ["0.5021"], ["101"], ["1150.9", "0.8"]], [["323.15"], ["0.598"], ["101"], ["1159.8", "0.8"]], [["323.15"], ["0.7168"], ["101"], ["1168.7", "0.8"]], [["323.15"], ["0.8155"], ["101"], ["1174.2", "0.8"]], [["323.15"], ["0.8848"], ["101"], ["1178.2", "0.8"]], [["323.15"], ["1"], ["101"], ["1183.8", "0.8"]]], "solvent": null, "footer": "", "expmeth": "Vibrating tube method"}