{"phases": ["Liquid"], "ref": {"full": "He, Z.; Zhao, Z.; Zhang, X.; Feng, H. (2010) Fluid Phase Equilib. 298(1), 83-91.", "title": "Thermodynamic properties of new heat pump working pairs: 1,3-Dimethylimidazolium dimethylphosphate and water, ethanol and methanol "}, "constr": [], "data": [[["298.15"], ["0.202"], ["101.325"], ["1000.6", "1.6"]], [["298.15"], ["0.414"], ["101.325"], ["1116.5", "1.5"]], [["298.15"], ["0.562"], ["101.325"], ["1166.7", "1.3"]], [["298.15"], ["0.807"], ["101.325"], ["1223.2", "1.3"]], [["298.15"], ["1"], ["101.325"], ["1258.7", "1.2"]], [["303.15"], ["0.202"], ["101.325"], ["996.6", "1.6"]], [["303.15"], ["0.414"], ["101.325"], ["1113.4", "1.5"]], [["303.15"], ["0.562"], ["101.325"], ["1163.4", "1.3"]], [["303.15"], ["0.807"], ["101.325"], ["1219.5", "1.3"]], [["303.15"], ["1"], ["101.325"], ["1255.9", "1.2"]], [["308.15"], ["0.202"], ["101.325"], ["992.7", "1.6"]], [["308.15"], ["0.414"], ["101.325"], ["1109.8", "1.5"]], [["308.15"], ["0.562"], ["101.325"], ["1159.7", "1.3"]], [["308.15"], ["0.807"], ["101.325"], ["1216.8", "1.3"]], [["308.15"], ["1"], ["101.325"], ["1253", "1.2"]], [["313.15"], ["0.202"], ["101.325"], ["989.7", "1.6"]], [["313.15"], ["0.414"], ["101.325"], ["1106.6", "1.5"]], [["313.15"], ["0.562"], ["101.325"], ["1156.2", "1.3"]], [["313.15"], ["0.807"], ["101.325"], ["1213.8", "1.3"]], [["313.15"], ["1"], ["101.325"], ["1249.1", "1.2"]], [["318.15"], ["0.202"], ["101.325"], ["986.9", "1.6"]], [["318.15"], ["0.414"], ["101.325"], ["1103.5", "1.5"]], [["318.15"], ["0.562"], ["101.325"], ["1152.4", "1.3"]], [["318.15"], ["0.807"], ["101.325"], ["1211.4", "1.3"]], [["318.15"], ["1"], ["101.325"], ["1245.2", "1.2"]], [["323.15"], ["0.202"], ["101.325"], ["983.2", "1.6"]], [["323.15"], ["0.414"], ["101.325"], ["1098.4", "1.6"]], [["323.15"], ["0.562"], ["101.325"], ["1148.5", "1.3"]], [["323.15"], ["0.807"], ["101.325"], ["1207.5", "1.3"]], [["323.15"], ["1"], ["101.325"], ["1241.5", "1.2"]]], "solvent": null, "footer": "", "expmeth": "Specific gravity balance", "components": [{"mw": "46.07", "idout": "AAIsrh", "formula": "C<SUB>2</SUB>H<SUB>6</SUB>O", "name": "ethanol", "sample": [["Source:", "commercial source"], ["Purification:", "estimated by the compiler"], ["Purity:", "99 mol %"]]}, {"sample": [["Source:", "synthesized by the authors"], ["Purification:", "NMR (proton);Karl Fischer titration"], ["Purity:", "99.6 mass %;0.017 water mass %"]], "idout": "AAqlaB", "mw": "222.18", "formula": "C<SUB>7</SUB>H<SUB>15</SUB>N<SUB>2</SUB>O<SUB>4</SUB>P", "name": "1,3-dimethylimidazolium dimethyl phosphate"}], "title": "Volumetric properties: Specific density", "dhead": [["Temperature, K", null], ["Mole fraction of 1,3-dimethylimidazolium dimethyl phosphate", "Liquid"], ["Pressure, kPa", null], ["Specific density, kg/m<SUP>3</SUP>", "Liquid"]]}