{"components": [{"idout": "AAtWDT", "mw": "236.29", "name": "1-ethyl-3-methylimidazolium ethyl sulfate", "formula": "C<SUB>8</SUB>H<SUB>16</SUB>N<SUB>2</SUB>O<SUB>4</SUB>S", "sample": [["Source:", "commercial source"], ["Initial purification:", "stated by supplier"], ["Initial purity:", "99.2 mass %"], ["Final purification:", "not known"], ["Final purity:", "0.5 water mass %(dried in a desiccator)"]]}], "title": "Volumetric properties: Specific density", "dhead": [["Temperature, K", null], ["Pressure, kPa", null], ["Specific density, kg/m<SUP>3</SUP>", "Liquid"]], "solvent": null, "data": [[["293.2"], ["101.325"], ["1242.5", "0.9"]], [["298.2"], ["101.325"], ["1235.8", "0.9"]], [["299.2"], ["101.325"], ["1235.2", "0.9"]], [["300.2"], ["101.325"], ["1234.5", "0.9"]], [["301.2"], ["101.325"], ["1233.9", "0.9"]], [["302.2"], ["101.325"], ["1233.2", "0.9"]], [["303.2"], ["101.325"], ["1232.6", "0.9"]], [["304.2"], ["101.325"], ["1231.9", "0.9"]], [["305.2"], ["101.325"], ["1231.3", "0.9"]], [["306.2"], ["101.325"], ["1230.6", "0.9"]], [["307.2"], ["101.325"], ["1230", "0.9"]], [["308.2"], ["101.325"], ["1229.4", "0.9"]], [["313.2"], ["101.325"], ["1226.1", "0.9"]], [["318.2"], ["101.325"], ["1222.9", "0.8"]], [["323.2"], ["101.325"], ["1219.7", "0.8"]], [["333.2"], ["101.325"], ["1213.2", "0.8"]], [["343.2"], ["101.325"], ["1206.8", "0.8"]], [["353.2"], ["101.325"], ["1200.3", "0.8"]]], "footer": "", "expmeth": "Vibrating tube method", "constr": [], "ref": {"full": "Soriano, A. N.; Doma Jr., B. T.; Li, M.-H. (2010) J. Taiwan Inst. Chem. Eng. 41, 115-121.", "title": "Density and refractive index measurements of 1-ethyl-3-methylimidazolium-based ionic liquids"}, "phases": ["Liquid"]}