{"ref": {"title": "Density and Refractive Index of Binary Mixtures of Two 1-Alkyl-3-methylimidazolium Ionic Liquids with 1,4-Dioxane and Ethylene Glycol", "full": "Ciocirlan, O.; Croitoru, O.; Iulian, O. (2014) J. Chem. Eng. Data 59(4), 1165-1174."}, "constr": [], "phases": ["Liquid"], "title": "Volumetric properties: Specific density", "components": [{"name": "1,2-ethanediol", "formula": "C<SUB>2</SUB>H<SUB>6</SUB>O<SUB>2</SUB>", "mw": "62.07", "idout": "AALwIY", "sample": [["Source:", "commercial source"], ["Purification:", "stated by supplier"], ["Purity:", "99.5 mass %"], ["Purity analysis:", "molecular sieve treatment"]]}, {"formula": "C<SUB>6</SUB>H<SUB>11</SUB>BF<SUB>4</SUB>N<SUB>2</SUB>", "name": "1-ethyl-3-methylimidazolium tetrafluoroborate", "idout": "AAmDom", "mw": "197.97", "sample": [["Source:", "commercial source"], ["Purification:", "stated by supplier"], ["Purity:", "98 mass %"], ["Purity analysis:", "none used"]]}], "dhead": [["Temperature, K", null], ["Mole fraction of 1-ethyl-3-methylimidazolium tetrafluoroborate", "Liquid"], ["Pressure, kPa", null], ["Specific density, kg/m<SUP>3</SUP>", "Liquid"]], "footer": "", "solvent": null, "data": [[["293.15"], ["0"], ["101"], ["1113.45", "0.16"]], [["293.15"], ["0.1249"], ["101"], ["1161.63", "0.26"]], [["293.15"], ["0.2084"], ["101"], ["1184.1", "0.3"]], [["293.15"], ["0.3046"], ["101"], ["1205.75", "0.38"]], [["293.15"], ["0.4124"], ["101"], ["1224.93", "0.5"]], [["293.15"], ["0.4763"], ["101"], ["1234.72", "0.57"]], [["293.15"], ["0.5565"], ["101"], ["1245.69", "0.68"]], [["293.15"], ["0.717"], ["101"], ["1264.34", "0.93"]], [["293.15"], ["0.7826"], ["101"], ["1271.1", "1"]], [["293.15"], ["0.901"], ["101"], ["1282.2", "1.3"]], [["293.15"], ["1"], ["101"], ["1290.6", "1.5"]], [["298.15"], ["0"], ["101"], ["1109.96", "0.16"]], [["298.15"], ["0.1249"], ["101"], ["1157.85", "0.26"]], [["298.15"], ["0.2084"], ["101"], ["1180.23", "0.3"]], [["298.15"], ["0.3046"], ["101"], ["1201.79", "0.38"]], [["298.15"], ["0.4124"], ["101"], ["1220.94", "0.49"]], [["298.15"], ["0.4763"], ["101"], ["1230.74", "0.57"]], [["298.15"], ["0.5565"], ["101"], ["1241.72", "0.67"]], [["298.15"], ["0.717"], ["101"], ["1260.43", "0.92"]], [["298.15"], ["0.7826"], ["101"], ["1267.2", "1"]], [["298.15"], ["0.901"], ["101"], ["1278.3", "1.3"]], [["298.15"], ["1"], ["101"], ["1286.8", "1.5"]], [["303.15"], ["0"], ["101"], ["1106.45", "0.16"]], [["303.15"], ["0.1249"], ["101"], ["1154.08", "0.26"]], [["303.15"], ["0.2084"], ["101"], ["1176.36", "0.3"]], [["303.15"], ["0.3046"], ["101"], ["1197.84", "0.38"]], [["303.15"], ["0.4124"], ["101"], ["1216.96", "0.49"]], [["303.15"], ["0.4763"], ["101"], ["1226.77", "0.56"]], [["303.15"], ["0.5565"], ["101"], ["1237.77", "0.67"]], [["303.15"], ["0.717"], ["101"], ["1256.53", "0.92"]], [["303.15"], ["0.7826"], ["101"], ["1263.4", "1"]], [["303.15"], ["0.901"], ["101"], ["1274.5", "1.3"]], [["303.15"], ["1"], ["101"], ["1283", "1.5"]], [["313.15"], ["0"], ["101"], ["1099.38", "0.16"]], [["313.15"], ["0.1249"], ["101"], ["1146.54", "0.26"]], [["313.15"], ["0.2084"], ["101"], ["1168.63", "0.29"]], [["313.15"], ["0.3046"], ["101"], ["1189.98", "0.37"]], [["313.15"], ["0.4124"], ["101"], ["1209.07", "0.48"]], [["313.15"], ["0.4763"], ["101"], ["1218.9", "0.55"]], [["313.15"], ["0.5565"], ["101"], ["1229.92", "0.66"]], [["313.15"], ["0.717"], ["101"], ["1248.81", "0.9"]], [["313.15"], ["0.7826"], ["101"], ["1255.7", "1"]], [["313.15"], ["0.901"], ["101"], ["1266.9", "1.2"]], [["313.15"], ["1"], ["101"], ["1275.5", "1.4"]], [["323.15"], ["0"], ["101"], ["1092.24", "0.15"]], [["323.15"], ["0.1249"], ["101"], ["1138.98", "0.25"]], [["323.15"], ["0.2084"], ["101"], ["1160.91", "0.29"]], [["323.15"], ["0.3046"], ["101"], ["1182.17", "0.36"]], [["323.15"], ["0.4124"], ["101"], ["1201.24", "0.47"]], [["323.15"], ["0.4763"], ["101"], ["1211.09", "0.55"]], [["323.15"], ["0.5565"], ["101"], ["1222.17", "0.65"]], [["323.15"], ["0.717"], ["101"], ["1241.18", "0.89"]], [["323.15"], ["0.7826"], ["101"], ["1248.1", "1"]], [["323.15"], ["0.901"], ["101"], ["1259.4", "1.2"]], [["323.15"], ["1"], ["101"], ["1268", "1.4"]], [["333.15"], ["0"], ["101"], ["1085", "0.15"]], [["333.15"], ["0.1249"], ["101"], ["1131.39", "0.25"]], [["333.15"], ["0.2084"], ["101"], ["1153.19", "0.28"]], [["333.15"], ["0.3046"], ["101"], ["1174.39", "0.36"]], [["333.15"], ["0.4124"], ["101"], ["1193.47", "0.46"]], [["333.15"], ["0.4763"], ["101"], ["1203.36", "0.54"]], [["333.15"], ["0.5565"], ["101"], ["1214.49", "0.64"]], [["333.15"], ["0.717"], ["101"], ["1233.6", "0.88"]], [["333.15"], ["0.7826"], ["101"], ["1240.56", "0.99"]], [["333.15"], ["0.901"], ["101"], ["1251.9", "1.2"]], [["333.15"], ["1"], ["101"], ["1260.5", "1.4"]], [["343.15"], ["0"], ["101"], ["1077.65", "0.15"]], [["343.15"], ["0.1249"], ["101"], ["1123.78", "0.25"]], [["343.15"], ["0.2084"], ["101"], ["1145.48", "0.28"]], [["343.15"], ["0.3046"], ["101"], ["1166.65", "0.35"]], [["343.15"], ["0.4124"], ["101"], ["1185.76", "0.46"]], [["343.15"], ["0.4763"], ["101"], ["1195.68", "0.53"]], [["343.15"], ["0.5565"], ["101"], ["1206.88", "0.63"]], [["343.15"], ["0.717"], ["101"], ["1226.11", "0.87"]], [["343.15"], ["0.7826"], ["101"], ["1233.11", "0.98"]], [["343.15"], ["0.901"], ["101"], ["1244.5", "1.2"]], [["343.15"], ["1"], ["101"], ["1253.2", "1.4"]], [["353.15"], ["0"], ["101"], ["1070.17", "0.15"]], [["353.15"], ["0.1249"], ["101"], ["1116.15", "0.24"]], [["353.15"], ["0.2084"], ["101"], ["1137.77", "0.27"]], [["353.15"], ["0.3046"], ["101"], ["1158.94", "0.35"]], [["353.15"], ["0.4124"], ["101"], ["1178.1", "0.45"]], [["353.15"], ["0.4763"], ["101"], ["1188.07", "0.52"]], [["353.15"], ["0.5565"], ["101"], ["1199.33", "0.62"]], [["353.15"], ["0.717"], ["101"], ["1218.68", "0.86"]], [["353.15"], ["0.7826"], ["101"], ["1225.73", "0.96"]], [["353.15"], ["0.901"], ["101"], ["1237.2", "1.2"]], [["353.15"], ["1"], ["101"], ["1245.9", "1.4"]]], "expmeth": "Vibrating tube method"}