{"phases": ["Liquid"], "ref": {"title": "Density and refractive index measurements of 1-ethyl-3-methylimidazolium-based ionic liquids", "full": "Soriano, A. N.; Doma Jr., B. T.; Li, M.-H. (2010) J. Taiwan Inst. Chem. Eng. 41, 115-121."}, "constr": [], "expmeth": "Vibrating tube method", "footer": "", "data": [[["293.2"], ["101.325"], ["1114.3", "0.8"]], [["298.2"], ["101.325"], ["1108.9", "0.8"]], [["299.2"], ["101.325"], ["1108.3", "0.8"]], [["300.2"], ["101.325"], ["1107.7", "0.8"]], [["301.2"], ["101.325"], ["1107", "0.8"]], [["302.2"], ["101.325"], ["1106.4", "0.8"]], [["303.2"], ["101.325"], ["1105.8", "0.8"]], [["304.2"], ["101.325"], ["1105.1", "0.8"]], [["305.2"], ["101.325"], ["1104.5", "0.8"]], [["306.2"], ["101.325"], ["1103.9", "0.8"]], [["307.2"], ["101.325"], ["1103.2", "0.8"]], [["308.2"], ["101.325"], ["1102.6", "0.8"]], [["313.2"], ["101.325"], ["1099.4", "0.8"]], [["318.2"], ["101.325"], ["1096.2", "0.8"]], [["323.2"], ["101.325"], ["1093.1", "0.8"]], [["333.2"], ["101.325"], ["1086.7", "0.8"]], [["343.2"], ["101.325"], ["1080.4", "0.8"]], [["353.2"], ["101.325"], ["1074", "0.8"]]], "solvent": null, "dhead": [["Temperature, K", null], ["Pressure, kPa", null], ["Specific density, kg/m<SUP>3</SUP>", "Liquid"]], "title": "Volumetric properties: Specific density", "components": [{"mw": "177.21", "idout": "AAiEIE", "formula": "C<SUB>8</SUB>H<SUB>11</SUB>N<SUB>5</SUB>", "name": "1-ethyl-3-methylimidazolium dicyanamide", "sample": [["Source:", "commercial source"], ["Initial purification:", "stated by supplier"], ["Initial purity:", "99.9 mass %"], ["Final purification:", "not known"], ["Final purity:", "0.05 water mass %(dried in a desiccator)"]]}]}