{"constr": [], "ref": {"title": "Density and Melting Points for the Binary Mixtures Dimethyl Sulfoxide (DMSO) + 1-Ethyl-3-methylimidazolium Acetate and DMSO + Choline Acetate", "full": "Nisa, L. d. P.; Mugang, M.; Bermejo, M. D.; Puras, J. J. S.; Prez, E. (2019) J. Chem. Eng. Data 64(7), 2923-2928."}, "phases": ["Liquid"], "dhead": [["Temperature, K", null], ["Mole fraction of dimethyl sulfoxide", "Liquid"], ["Mole fraction of water", "Liquid"], ["Pressure, kPa", null], ["Specific density, kg/m<SUP>3</SUP>", "Liquid"]], "components": [{"formula": "C<SUB>2</SUB>H<SUB>6</SUB>OS", "name": "dimethyl sulfoxide", "mw": "78.13", "idout": "AAPByN", "sample": [["Source:", "commercial source"], ["Initial purification:", "stated by supplier"], ["Initial purity:", "98 mass %"], ["Final purification:", "Karl Fischer titration"], ["Final purity:", "0.039 water mass %(dried by vacuum heating)"]]}, {"idout": "AAgmaR", "mw": "170.21", "formula": "C<SUB>8</SUB>H<SUB>14</SUB>N<SUB>2</SUB>O<SUB>2</SUB>", "name": "1-ethyl-3-methylimidazolium acetate", "sample": [["Source:", "commercial source"], ["Initial purification:", "stated by supplier"], ["Initial purity:", "99.6 mass %"], ["Final purification:", "Karl Fischer titration"], ["Final purity:", "0.193 water mass %(dried by vacuum heating)"]]}, {"sample": [["Source:", "commercial source"], ["Purification:", "estimated by the compiler"], ["Purity:", "99.9 mass %"]], "idout": "AADYJk", "mw": "18.02", "formula": "H<SUB>2</SUB>O", "name": "water"}], "title": "Volumetric properties: Specific density", "expmeth": "Vibrating tube method", "data": [[["293.15"], ["0"], ["0.018"], ["100"], ["1101.7", "0.5"]], [["293.15"], ["0.052"], ["0.018"], ["100"], ["1102.4", "0.5"]], [["293.15"], ["0.101"], ["0.016"], ["100"], ["1103", "0.5"]], [["293.15"], ["0.192"], ["0.022"], ["100"], ["1103.8", "0.5"]], [["293.15"], ["0.294"], ["0.023"], ["100"], ["1104.9", "0.6"]], [["293.15"], ["0.395"], ["0.016"], ["100"], ["1105.8", "0.6"]], [["293.15"], ["0.494"], ["0.013"], ["100"], ["1106.6", "0.6"]], [["293.15"], ["0.593"], ["0.011"], ["100"], ["1107.4", "0.7"]], [["293.15"], ["0.679"], ["0.01"], ["100"], ["1107.6", "0.8"]], [["293.15"], ["0.795"], ["0.009"], ["100"], ["1107.2", "0.9"]], [["293.15"], ["0.893"], ["0.007"], ["100"], ["1105.4", "1"]], [["293.15"], ["0.998"], ["0.002"], ["100"], ["1100.2", "1.1"]], [["303.15"], ["0"], ["0.018"], ["100"], ["1095.6", "0.5"]], [["303.15"], ["0.052"], ["0.018"], ["100"], ["1096.3", "0.5"]], [["303.15"], ["0.101"], ["0.016"], ["100"], ["1096.9", "0.5"]], [["303.15"], ["0.192"], ["0.022"], ["100"], ["1097.5", "0.5"]], [["303.15"], ["0.294"], ["0.023"], ["100"], ["1098.4", "0.6"]], [["303.15"], ["0.395"], ["0.016"], ["100"], ["1099", "0.6"]], [["303.15"], ["0.494"], ["0.013"], ["100"], ["1099.5", "0.6"]], [["303.15"], ["0.593"], ["0.011"], ["100"], ["1099.9", "0.7"]], [["303.15"], ["0.679"], ["0.01"], ["100"], ["1099.9", "0.7"]], [["303.15"], ["0.795"], ["0.009"], ["100"], ["1098.8", "0.8"]], [["303.15"], ["0.893"], ["0.007"], ["100"], ["1096.3", "0.9"]], [["303.15"], ["0.998"], ["0.002"], ["100"], ["1090.2", "1.1"]], [["313.15"], ["0"], ["0.018"], ["100"], ["1089.6", "0.5"]], [["313.15"], ["0.052"], ["0.018"], ["100"], ["1090.3", "0.5"]], [["313.15"], ["0.101"], ["0.016"], ["100"], ["1090.8", "0.5"]], [["313.15"], ["0.192"], ["0.022"], ["100"], ["1091.2", "0.5"]], [["313.15"], ["0.294"], ["0.023"], ["100"], ["1091.8", "0.6"]], [["313.15"], ["0.395"], ["0.016"], ["100"], ["1092.2", "0.6"]], [["313.15"], ["0.494"], ["0.013"], ["100"], ["1092.4", "0.6"]], [["313.15"], ["0.593"], ["0.011"], ["100"], ["1092.5", "0.7"]], [["313.15"], ["0.679"], ["0.01"], ["100"], ["1092", "0.7"]], [["313.15"], ["0.795"], ["0.009"], ["100"], ["1090.4", "0.8"]], [["313.15"], ["0.893"], ["0.007"], ["100"], ["1087.3", "0.9"]], [["313.15"], ["0.998"], ["0.002"], ["100"], ["1080.4", "1"]], [["323.15"], ["0"], ["0.018"], ["100"], ["1083.7", "0.5"]], [["323.15"], ["0.052"], ["0.018"], ["100"], ["1084.2", "0.5"]], [["323.15"], ["0.101"], ["0.016"], ["100"], ["1084.5", "0.5"]], [["323.15"], ["0.192"], ["0.022"], ["100"], ["1084.8", "0.5"]], [["323.15"], ["0.294"], ["0.023"], ["100"], ["1085.2", "0.5"]], [["323.15"], ["0.395"], ["0.016"], ["100"], ["1085.3", "0.6"]], [["323.15"], ["0.494"], ["0.013"], ["100"], ["1085.4", "0.6"]], [["323.15"], ["0.593"], ["0.011"], ["100"], ["1085.1", "0.7"]], [["323.15"], ["0.679"], ["0.01"], ["100"], ["1084.3", "0.7"]], [["323.15"], ["0.795"], ["0.009"], ["100"], ["1082", "0.8"]], [["323.15"], ["0.893"], ["0.007"], ["100"], ["1078.3", "0.9"]], [["323.15"], ["0.998"], ["0.002"], ["100"], ["1070.2", "1"]], [["333.15"], ["0"], ["0.018"], ["100"], ["1077.7", "0.5"]], [["333.15"], ["0.052"], ["0.018"], ["100"], ["1078.1", "0.5"]], [["333.15"], ["0.101"], ["0.016"], ["100"], ["1078.3", "0.5"]], [["333.15"], ["0.192"], ["0.022"], ["100"], ["1078.4", "0.5"]], [["333.15"], ["0.294"], ["0.023"], ["100"], ["1078.7", "0.5"]], [["333.15"], ["0.395"], ["0.016"], ["100"], ["1078.7", "0.6"]], [["333.15"], ["0.494"], ["0.013"], ["100"], ["1078.3", "0.6"]], [["333.15"], ["0.593"], ["0.011"], ["100"], ["1077.8", "0.7"]], [["333.15"], ["0.679"], ["0.01"], ["100"], ["1076.6", "0.7"]], [["333.15"], ["0.795"], ["0.009"], ["100"], ["1073.7", "0.8"]], [["333.15"], ["0.893"], ["0.007"], ["100"], ["1069.3", "0.9"]], [["333.15"], ["0.998"], ["0.002"], ["100"], ["1060.3", "1"]], [["343.15"], ["0"], ["0.018"], ["100"], ["1071.8", "0.5"]], [["343.15"], ["0.052"], ["0.018"], ["100"], ["1072", "0.5"]], [["343.15"], ["0.101"], ["0.016"], ["100"], ["1072.2", "0.5"]], [["343.15"], ["0.192"], ["0.022"], ["100"], ["1072.2", "0.5"]], [["343.15"], ["0.294"], ["0.023"], ["100"], ["1072.1", "0.5"]], [["343.15"], ["0.395"], ["0.016"], ["100"], ["1071.8", "0.6"]], [["343.15"], ["0.494"], ["0.013"], ["100"], ["1071.3", "0.6"]], [["343.15"], ["0.593"], ["0.011"], ["100"], ["1070.4", "0.7"]], [["343.15"], ["0.679"], ["0.01"], ["100"], ["1068.9", "0.7"]], [["343.15"], ["0.795"], ["0.009"], ["100"], ["1065.4", "0.8"]], [["343.15"], ["0.893"], ["0.007"], ["100"], ["1060.3", "0.9"]], [["343.15"], ["0.998"], ["0.002"], ["100"], ["1050.2", "1"]], [["353.15"], ["0"], ["0.018"], ["100"], ["1065.9", "0.5"]], [["353.15"], ["0.052"], ["0.018"], ["100"], ["1066.1", "0.5"]], [["353.15"], ["0.101"], ["0.016"], ["100"], ["1066.1", "0.5"]], [["353.15"], ["0.192"], ["0.022"], ["100"], ["1065.9", "0.5"]], [["353.15"], ["0.294"], ["0.023"], ["100"], ["1065.6", "0.5"]], [["353.15"], ["0.395"], ["0.016"], ["100"], ["1065.2", "0.6"]], [["353.15"], ["0.494"], ["0.013"], ["100"], ["1064.4", "0.6"]], [["353.15"], ["0.593"], ["0.011"], ["100"], ["1063.1", "0.7"]], [["353.15"], ["0.679"], ["0.01"], ["100"], ["1061.2", "0.7"]], [["353.15"], ["0.795"], ["0.009"], ["100"], ["1057.1", "0.8"]], [["353.15"], ["0.893"], ["0.007"], ["100"], ["1051.3", "0.9"]], [["353.15"], ["0.998"], ["0.002"], ["100"], ["1040.2", "1"]], [["363.15"], ["0"], ["0.018"], ["100"], ["1060", "0.5"]], [["363.15"], ["0.052"], ["0.018"], ["100"], ["1060.1", "0.5"]], [["363.15"], ["0.101"], ["0.016"], ["100"], ["1060", "0.5"]], [["363.15"], ["0.192"], ["0.022"], ["100"], ["1059.8", "0.5"]], [["363.15"], ["0.294"], ["0.023"], ["100"], ["1059.3", "0.5"]], [["363.15"], ["0.395"], ["0.016"], ["100"], ["1058.4", "0.6"]], [["363.15"], ["0.494"], ["0.013"], ["100"], ["1057.5", "0.6"]], [["363.15"], ["0.593"], ["0.011"], ["100"], ["1055.8", "0.7"]], [["363.15"], ["0.679"], ["0.01"], ["100"], ["1053.6", "0.7"]], [["363.15"], ["0.795"], ["0.009"], ["100"], ["1048.8", "0.8"]], [["363.15"], ["0.893"], ["0.007"], ["100"], ["1042.3", "0.9"]], [["363.15"], ["0.998"], ["0.002"], ["100"], ["1029.9", "1"]], [["373.15"], ["0"], ["0.018"], ["100"], ["1054.2", "0.5"]], [["373.15"], ["0.052"], ["0.018"], ["100"], ["1054.1", "0.5"]], [["373.15"], ["0.101"], ["0.016"], ["100"], ["1054", "0.5"]], [["373.15"], ["0.192"], ["0.022"], ["100"], ["1053.6", "0.5"]], [["373.15"], ["0.294"], ["0.023"], ["100"], ["1052.9", "0.5"]], [["373.15"], ["0.395"], ["0.016"], ["100"], ["1051.8", "0.6"]], [["373.15"], ["0.494"], ["0.013"], ["100"], ["1050.6", "0.6"]], [["373.15"], ["0.593"], ["0.011"], ["100"], ["1048.5", "0.6"]], [["373.15"], ["0.679"], ["0.01"], ["100"], ["1046", "0.7"]], [["373.15"], ["0.795"], ["0.009"], ["100"], ["1040.4", "0.8"]], [["373.15"], ["0.893"], ["0.007"], ["100"], ["1033.2", "0.9"]], [["373.15"], ["0.998"], ["0.002"], ["100"], ["1019.8", "0.9"]]], "solvent": null, "footer": ""}