{"ref": {"full": "Ciocirlan, O.; Croitoru, O.; Iulian, O. (2014) J. Chem. Eng. Data 59(4), 1165-1174.", "title": "Density and Refractive Index of Binary Mixtures of Two 1-Alkyl-3-methylimidazolium Ionic Liquids with 1,4-Dioxane and Ethylene Glycol"}, "constr": [], "phases": ["Liquid"], "dhead": [["Temperature, K", null], ["Mole fraction of 1-butyl-3-methylimidazolium tetrafluoroborate", "Liquid"], ["Pressure, kPa", null], ["Specific density, kg/m<SUP>3</SUP>", "Liquid"]], "components": [{"name": "1,4-dioxane", "formula": "C<SUB>4</SUB>H<SUB>8</SUB>O<SUB>2</SUB>", "idout": "AAQxnz", "mw": "88.11", "sample": [["Source:", "commercial source"], ["Purification:", "stated by supplier"], ["Purity:", "99 mass %"], ["Purity analysis:", "molecular sieve treatment"]]}, {"name": "1-butyl-3-methylimidazolium tetrafluoroborate", "formula": "C<SUB>8</SUB>H<SUB>15</SUB>BF<SUB>4</SUB>N<SUB>2</SUB>", "idout": "AArYBF", "mw": "226.03", "sample": [["Source:", "commercial source"], ["Purification:", "stated by supplier"], ["Purity:", "99 mass %"], ["Purity analysis:", "none used"]]}], "title": "Volumetric properties: Specific density", "expmeth": "Vibrating tube method", "data": [[["293.15"], ["0"], ["101"], ["1033.57", "0.26"]], [["293.15"], ["0.2559"], ["101"], ["1118.75", "0.35"]], [["293.15"], ["0.3956"], ["101"], ["1146.31", "0.36"]], [["293.15"], ["0.4988"], ["101"], ["1161.37", "0.36"]], [["293.15"], ["0.6"], ["101"], ["1173.1", "0.37"]], [["293.15"], ["0.7021"], ["101"], ["1183.04", "0.38"]], [["293.15"], ["0.8993"], ["101"], ["1198.09", "0.39"]], [["293.15"], ["1"], ["101"], ["1204.44", "0.4"]], [["298.15"], ["0"], ["101"], ["1027.92", "0.25"]], [["298.15"], ["0.2559"], ["101"], ["1114.31", "0.34"]], [["298.15"], ["0.3956"], ["101"], ["1142.23", "0.35"]], [["298.15"], ["0.4988"], ["101"], ["1157.44", "0.36"]], [["298.15"], ["0.6"], ["101"], ["1169.26", "0.37"]], [["298.15"], ["0.7021"], ["101"], ["1179.3", "0.38"]], [["298.15"], ["0.8993"], ["101"], ["1194.53", "0.39"]], [["298.15"], ["1"], ["101"], ["1200.89", "0.39"]], [["303.15"], ["0"], ["101"], ["1022.27", "0.25"]], [["303.15"], ["0.2559"], ["101"], ["1109.87", "0.34"]], [["303.15"], ["0.3956"], ["101"], ["1138.14", "0.35"]], [["303.15"], ["0.4988"], ["101"], ["1153.51", "0.36"]], [["303.15"], ["0.6"], ["101"], ["1165.45", "0.37"]], [["303.15"], ["0.7021"], ["101"], ["1175.57", "0.37"]], [["303.15"], ["0.8993"], ["101"], ["1190.95", "0.39"]], [["303.15"], ["1"], ["101"], ["1197.34", "0.39"]], [["313.15"], ["0"], ["101"], ["1010.91", "0.24"]], [["313.15"], ["0.2559"], ["101"], ["1101.06", "0.33"]], [["313.15"], ["0.3956"], ["101"], ["1130.01", "0.34"]], [["313.15"], ["0.4988"], ["101"], ["1145.69", "0.35"]], [["313.15"], ["0.6"], ["101"], ["1157.84", "0.36"]], [["313.15"], ["0.7021"], ["101"], ["1168.15", "0.37"]], [["313.15"], ["0.8993"], ["101"], ["1183.8", "0.38"]], [["313.15"], ["1"], ["101"], ["1190.27", "0.39"]], [["323.15"], ["0"], ["101"], ["999.49", "0.23"]], [["323.15"], ["0.2559"], ["101"], ["1092.28", "0.33"]], [["323.15"], ["0.3956"], ["101"], ["1121.91", "0.34"]], [["323.15"], ["0.4988"], ["101"], ["1137.92", "0.35"]], [["323.15"], ["0.6"], ["101"], ["1150.29", "0.35"]], [["323.15"], ["0.7021"], ["101"], ["1160.77", "0.36"]], [["323.15"], ["0.8993"], ["101"], ["1176.68", "0.38"]], [["323.15"], ["1"], ["101"], ["1183.24", "0.38"]], [["333.15"], ["0"], ["101"], ["987.97", "0.23"]], [["333.15"], ["0.2559"], ["101"], ["1083.47", "0.32"]], [["333.15"], ["0.3956"], ["101"], ["1113.85", "0.33"]], [["333.15"], ["0.4988"], ["101"], ["1130.18", "0.34"]], [["333.15"], ["0.6"], ["101"], ["1142.79", "0.35"]], [["333.15"], ["0.7021"], ["101"], ["1153.44", "0.36"]], [["333.15"], ["0.8993"], ["101"], ["1169.6", "0.37"]], [["333.15"], ["1"], ["101"], ["1176.25", "0.37"]], [["343.15"], ["0"], ["101"], ["976.37", "0.23"]], [["343.15"], ["0.2559"], ["101"], ["1074.65", "0.32"]], [["343.15"], ["0.3956"], ["101"], ["1105.8", "0.32"]], [["343.15"], ["0.4988"], ["101"], ["1122.47", "0.33"]], [["343.15"], ["0.6"], ["101"], ["1135.31", "0.34"]], [["343.15"], ["0.7021"], ["101"], ["1146.14", "0.35"]], [["343.15"], ["0.8993"], ["101"], ["1162.53", "0.36"]], [["343.15"], ["1"], ["101"], ["1169.32", "0.37"]], [["353.15"], ["0"], ["101"], ["964.63", "0.23"]], [["353.15"], ["0.2559"], ["101"], ["1065.8", "0.32"]], [["353.15"], ["0.3956"], ["101"], ["1097.77", "0.32"]], [["353.15"], ["0.4988"], ["101"], ["1114.8", "0.33"]], [["353.15"], ["0.6"], ["101"], ["1127.87", "0.34"]], [["353.15"], ["0.7021"], ["101"], ["1138.89", "0.34"]], [["353.15"], ["0.8993"], ["101"], ["1155.57", "0.36"]], [["353.15"], ["1"], ["101"], ["1162.44", "0.36"]]], "solvent": null, "footer": ""}