{"phases": ["Liquid"], "ref": {"title": "Density and refractive index measurements of 1-ethyl-3-methylimidazolium-based ionic liquids", "full": "Soriano, A. N.; Doma Jr., B. T.; Li, M.-H. (2010) J. Taiwan Inst. Chem. Eng. 41, 115-121."}, "constr": [], "footer": "", "solvent": null, "data": [[["298.2"], ["101.325"], ["1236.8", "1.3"]], [["299.2"], ["101.325"], ["1236.1", "1.3"]], [["300.2"], ["101.325"], ["1235.4", "1.3"]], [["301.2"], ["101.325"], ["1234.7", "1.3"]], [["302.2"], ["101.325"], ["1234.1", "1.3"]], [["303.2"], ["101.325"], ["1233.4", "1.3"]], [["304.2"], ["101.325"], ["1232.7", "1.3"]], [["305.2"], ["101.325"], ["1232", "1.3"]], [["306.2"], ["101.325"], ["1231.4", "1.3"]], [["307.2"], ["101.325"], ["1230.7", "1.3"]], [["308.2"], ["101.325"], ["1230", "1.3"]], [["313.2"], ["101.325"], ["1226.6", "1.3"]], [["318.2"], ["101.325"], ["1223.2", "1.3"]], [["323.2"], ["101.325"], ["1219.8", "1.3"]], [["333.2"], ["101.325"], ["1213.1", "1.3"]], [["343.2"], ["101.325"], ["1206.3", "1.3"]], [["353.2"], ["101.325"], ["1199.5", "1.2"]]], "expmeth": "Vibrating tube method", "title": "Volumetric properties: Specific density", "components": [{"sample": [["Source:", "commercial source"], ["Initial purification:", "stated by supplier"], ["Initial purity:", "98.2 mass %"], ["Final purification:", "not known"], ["Final purity:", "0.2 water mass %(dried in a desiccator)"]], "name": "1-ethyl-3-methylimidazolium 2-(2-methoxyethoxy) ethylsulfate", "formula": "C<SUB>11</SUB>H<SUB>22</SUB>N<SUB>2</SUB>O<SUB>6</SUB>S", "idout": "ABHjxw", "mw": "310.37"}], "dhead": [["Temperature, K", null], ["Pressure, kPa", null], ["Specific density, kg/m<SUP>3</SUP>", "Liquid"]]}