{"constr": [], "ref": {"title": "Density and refractive index measurements of 1-ethyl-3-methylimidazolium-based ionic liquids", "full": "Soriano, A. N.; Doma Jr., B. T.; Li, M.-H. (2010) J. Taiwan Inst. Chem. Eng. 41, 115-121."}, "phases": ["Liquid"], "title": "Volumetric properties: Specific density", "components": [{"sample": [["Source:", "commercial source"], ["Initial purification:", "stated by supplier"], ["Initial purity:", "97 mass %"], ["Final purification:", "not known"], ["Final purity:", "0.9 water mass %(dried in a desiccator)"]], "name": "1-ethyl-3-methylimidazolium tetrafluoroborate", "formula": "C<SUB>6</SUB>H<SUB>11</SUB>BF<SUB>4</SUB>N<SUB>2</SUB>", "mw": "197.97", "idout": "AAmDom"}], "dhead": [["Temperature, K", null], ["Pressure, kPa", null], ["Specific density, kg/m<SUP>3</SUP>", "Liquid"]], "footer": "", "data": [[["293.2"], ["101.325"], ["1288.4", "3.2"]], [["298.2"], ["101.325"], ["1282.3", "3.2"]], [["299.2"], ["101.325"], ["1281.6", "3.2"]], [["300.2"], ["101.325"], ["1280.8", "3.2"]], [["301.2"], ["101.325"], ["1280.1", "3.2"]], [["302.2"], ["101.325"], ["1279.4", "3.2"]], [["303.2"], ["101.325"], ["1278.7", "3.2"]], [["304.2"], ["101.325"], ["1277.9", "3.2"]], [["305.2"], ["101.325"], ["1277.2", "3.2"]], [["306.2"], ["101.325"], ["1276.5", "3.2"]], [["307.2"], ["101.325"], ["1275.8", "3.2"]], [["308.2"], ["101.325"], ["1275", "3.2"]], [["313.2"], ["101.325"], ["1271.4", "3.1"]], [["318.2"], ["101.325"], ["1267.8", "3.1"]], [["323.2"], ["101.325"], ["1264.2", "3.1"]], [["333.2"], ["101.325"], ["1256.9", "3.1"]], [["343.2"], ["101.325"], ["1249.7", "3"]], [["353.2"], ["101.325"], ["1242.4", "3"]]], "solvent": null, "expmeth": "Vibrating tube method"}