{"ref": {"title": "Phase behaviour of 1-butyl-1-methylpyrrolidinium thiocyanate ionic liquid", "full": "Domanska-Zelazna, U.; Krolikowska, M. (2011) Fluid Phase Equilib. 308(1-2), 55-63."}, "constr": ["Pressure of 1 atm"], "phases": ["Crystal 1", "Liquid"], "dhead": [["Normal melting temperature, K"]], "components": [{"formula": "C<SUB>10</SUB>H<SUB>20</SUB>N<SUB>2</SUB>S", "name": "1-butyl-1-methylpyrrolidinium thiocyanate", "mw": "200.34", "idout": "AAmbYu", "sample": [["Source:", "commercial source"], ["Initial purification:", "stated by supplier"], ["Initial purity:", "98 mass %"], ["Final purification:", "Karl Fischer titration"], ["Final purity:", "0.042 water mass %(dried by vacuum heating)"]]}], "title": "Phase transition properties: Normal melting temperature", "expmeth": "DSC/DTA", "data": [[["295.4", "0.9"]]], "solvent": null, "footer": ""}