{"title": "Phase transition properties: Normal melting temperature", "components": [{"sample": [["Source:", "synthesized by the authors"], ["Purification:", "HPLC;Karl Fischer titration"], ["Purity:", "99.5 mass %;0.0047 water mass %(crystallization from solution;de-gassed by evacuation;dried by vacuum heating)"]], "mw": "762.61", "idout": "ACqiuN", "formula": "C<SUB>15</SUB>H<SUB>26</SUB>F<SUB>12</SUB>N<SUB>4</SUB>O<SUB>9</SUB>S<SUB>4</SUB>", "name": "4-methyl-4-(3-(trimethylammonio)propyl)morpholin-4-ium bis((trifluoromethyl)sulfonyl)amide"}], "dhead": [["Normal melting temperature, K"]], "footer": "", "data": [[["435.96", "0.41"]]], "solvent": null, "expmeth": "DSC/DTA", "ref": {"full": "Yang, X.; Wang, J.; Fang, Y. (2020) J. Solution Chem. 49(2), 145-165.", "title": "Solubility and Thermodynamic Properties of Ammonium-Based Gemini Ionic Liquids in Pure Solvents"}, "constr": ["Pressure of 1 atm"], "phases": ["Crystal", "Liquid"]}