{"constr": ["Pressure of 1 atm"], "ref": {"title": "Thermophysical properties of imidazolium-based ionic liquids", "full": "Fredlake, C. P.; Crosthwaite, J. M.; Hert, D. G.; Aki, S. N. V. K.; Brennecke, J. F. (2004) J. Chem. Eng. Data 49(4), 954-964."}, "phases": ["Crystal", "Liquid"], "title": "Phase transition properties: Normal melting temperature", "components": [{"sample": [["Source:", "synthesized by the authors"], ["Purification:", "Karl Fischer titration"], ["Purity:", "0.28 water mass %(dried by vacuum heating;impurity adsorption)"]], "formula": "C<SUB>9</SUB>H<SUB>15</SUB>F<SUB>3</SUB>N<SUB>2</SUB>O<SUB>3</SUB>S", "name": "1-butyl-3-methylimidazolium trifluoromethanesulfonate", "idout": "ABDWVo", "mw": "288.29"}], "dhead": [["Normal melting temperature, K"]], "footer": "", "solvent": null, "data": [[["286.1", "1"]]], "expmeth": "DSC/DTA"}