{"components": [{"sample": [["Source:", "synthesized by the authors"], ["Purification:", "estimation"], ["Purity:", "97 mass %"]], "mw": "231.09", "idout": "AAsWAF", "formula": "C<SUB>9</SUB>H<SUB>22</SUB>BF<SUB>4</SUB>N", "name": "N,N-diethyl-N-methylbutan-1-aminium tetrafluoroborate"}], "title": "Phase transition properties: Normal melting temperature", "dhead": [["Normal melting temperature, K"]], "data": [[["438.1", "1"]]], "solvent": null, "footer": "", "expmeth": "DSC/DTA", "ref": {"full": "Zhou, Z.-B.; Matsumoto, H.; Tatsumi, K. (2005) Chem. Eur. J. 11, 752-766.", "title": "Low-Melting, Low-Viscous, Hydrophobic Ionic Liquids: Aliphatic Quaternary Ammonium Salts with Perfluoroalkyltrifluoroborates"}, "constr": ["Pressure of 1 atm"], "phases": ["Crystal", "Liquid"]}