{"ref": {"title": "Experimental investigation of thermo-physical properties of geminal dicationic ionic compounds for latent thermal energy storage", "full": "Liu, J.; Yang, W.; Li, Z.; Ren, F.; Hao, H. (2020) J. Mol. Liq. 307, 112994."}, "constr": ["Pressure of 1 atm"], "phases": ["Crystal", "Liquid"], "title": "Phase transition properties: Normal melting temperature", "components": [{"mw": "436.24", "idout": "ABfuMw", "name": "1,1'-(butane-1,4-diyl)bis(3-propylimidazolium) bromide", "formula": "C<SUB>16</SUB>H<SUB>28</SUB>Br<SUB>2</SUB>N<SUB>4</SUB>", "sample": [["Source:", "synthesized by the authors"], ["Purification:", "estimated by the compiler;Karl Fischer titration"], ["Purity:", "98 mass %;0.0313 water mass %(dried by vacuum heating;solvent extraction)"]]}], "dhead": [["Normal melting temperature, K"]], "footer": "", "solvent": null, "data": [[["351.9", "1.1"]]], "expmeth": "DSC/DTA"}