{"expmeth": "DSC/DTA", "solvent": null, "data": [[["333.95", "0.5"]]], "footer": "", "dhead": [["Normal melting temperature, K"]], "components": [{"formula": "C<SUB>9</SUB>H<SUB>11</SUB>BF<SUB>4</SUB>N<SUB>2</SUB>", "name": "N-butyronitrile pyridinium tetrafluoroborate", "idout": "AAtAtP", "mw": "234.00", "sample": [["Source:", "synthesized by the authors"], ["Purification:", "estimated by the compiler"], ["Purity:", "98 mass %(chemical reagent treatment;dried by vacuum heating)"]]}], "title": "Phase transition properties: Normal melting temperature", "phases": ["Crystal 1", "Liquid"], "constr": ["Pressure of 1 atm"], "ref": {"title": "Physicochemical Properties of Nitrile-Functionalized Ionic Liquids", "full": "Zhang, Q.; Li, Z.; Zhang, J.; Zhang, S.; Zhu, L.; Yang, J.; Zhang, X.; Deng, Y. (2007) J. Phys. Chem. B 111, 2864-2872."}}