{"constr": ["Pressure of 1 atm"], "ref": {"full": "Fillion, J.; Xia, H.; DeSilva, M. A.; Quiroz-Guzman, M.; Brennecke, J. (2016) J. Chem. Eng. Data 61(8), 2897-2914.", "title": "Phase transitions, decomposition temperatures, viscosities and densities of phosphonium, ammonium and imidazolium ionic liquids with aprotic heterocyclic anions"}, "phases": ["Crystal", "Liquid"], "components": [{"sample": [["Source:", "synthesized by the authors"], ["Purification:", "NMR (proton)"], ["Purity:", "99 % (basis not specified)"]], "name": "triethylnonylphosphonium 4-nitropyrazolide", "formula": "C<SUB>18</SUB>H<SUB>36</SUB>N<SUB>3</SUB>O<SUB>2</SUB>P", "idout": "ABQmMl", "mw": "357.48"}], "title": "Phase transition properties: Normal melting temperature", "dhead": [["Normal melting temperature, K"]], "data": [[["289", "2"]]], "solvent": null, "footer": "", "expmeth": "DSC/DTA"}