{"phases": ["Crystal 1", "Liquid"], "ref": {"full": "Sudholter, E. J. R.; Engberts, J. B. F. N.; de Jeu, W. H. (1982) J. Phys. Chem. 86, 1908-13.", "title": "Thermotropic liquid-crystalline behavior of some single- and double-chained pyridinium amphiphiles"}, "constr": ["Pressure of 1 atm"], "expmeth": false, "solvent": null, "data": [[["345.1", "1"]]], "footer": "", "dhead": [["Normal melting temperature, K"]], "components": [{"formula": "C<SUB>39</SUB>H<SUB>74</SUB>IN", "name": "4-(1-hexadecylheptadecyl)-1-methylpyridinine hydroiodide", "idout": "ACbbIK", "mw": "683.93", "sample": [["Source:", "synthesized by the authors"]]}], "title": "Phase transition properties: Normal melting temperature"}