{"data": [[["372.6", "7.5"]]], "solvent": null, "footer": "", "expmeth": "DSC/DTA", "components": [{"mw": "212.13", "idout": "AAopKM", "name": "N-(2-hydroxyethyl)-N,N-dimethylpropanaminium bromide", "formula": "C<SUB>7</SUB>H<SUB>18</SUB>BrNO", "sample": [["Source:", "synthesized by the authors"], ["Purification:", "estimated by the compiler;Karl Fischer titration"], ["Purity:", "99 % (basis not specified);0.021 water mass %(crystallization from solution)"]]}], "title": "Phase transition properties: Normal melting temperature", "dhead": [["Normal melting temperature, K"]], "phases": ["Crystal 1", "Liquid"], "constr": ["Pressure of 1 atm"], "ref": {"full": "Domanska, U.; Bogel-Lukasik, R. (2005) J. Phys. Chem. B 109, 12124-12132.", "title": "Physicochemical Properties and Solubility of  Alkyl-(2-hydroxyethyl)-dimethylammonium Bromide "}}