{"title": "Phase transition properties: Normal melting temperature", "components": [{"sample": [["Source:", "synthesized by the authors"], ["Purification:", "NMR (proton)"], ["Purity:", "97 % (basis not specified)"]], "idout": "ABFdgc", "mw": "299.35", "formula": "C<SUB>14</SUB>H<SUB>26</SUB>N<SUB>3</SUB>O<SUB>2</SUB>P", "name": "cyclopentyltriethylphosphonium 4-nitropyrazolide"}], "dhead": [["Normal melting temperature, K"]], "footer": "", "data": [[["324", "2"]]], "solvent": null, "expmeth": "DSC/DTA", "constr": ["Pressure of 1 atm"], "ref": {"full": "Fillion, J.; Xia, H.; DeSilva, M. A.; Quiroz-Guzman, M.; Brennecke, J. (2016) J. Chem. Eng. Data 61(8), 2897-2914.", "title": "Phase transitions, decomposition temperatures, viscosities and densities of phosphonium, ammonium and imidazolium ionic liquids with aprotic heterocyclic anions"}, "phases": ["Crystal", "Liquid"]}