{"constr": ["Pressure of 1 atm"], "ref": {"full": "Krolikowska, M.; Zawadzki, M.; Skonieczny, M. (2018) J. Mol. Liq. 265, 316-326.", "title": "The influence of bromide-based ionic liquids on solubility of {LiBr (1) + water (2)} system. Experimental (solid + liquid) phase equilibrium data. Part 2"}, "phases": ["Crystal", "Liquid"], "title": "Phase transition properties: Normal melting temperature", "components": [{"sample": [["Source:", "synthesized by the authors"], ["Purification:", "NMR (proton)"], ["Purity:", "95 mol %(crystallization from solution;dried by vacuum heating)"]], "name": "N-(2-acetyloxy)ethyl-N-methylmorpholinium bromide", "formula": "C<SUB>9</SUB>H<SUB>18</SUB>BrNO<SUB>3</SUB>", "mw": "268.15", "idout": "AAzdXL"}], "dhead": [["Normal melting temperature, K"]], "footer": "", "data": [[["406.4", "5"]]], "solvent": null, "expmeth": "DSC/DTA"}