{"constr": ["Pressure of 1 atm"], "ref": {"full": "Li, H.; Zhao, G.; Liu, F.; Zhang, S. (2013) J. Chem. Eng. Data 58(6), 1505-1515.", "title": "Physicochemical Characterization of MFm -Based Ammonium Ionic Liquids"}, "phases": ["Crystal", "Liquid"], "title": "Phase transition properties: Normal melting temperature", "components": [{"name": "N,N,N-triethyloctan-1-aminium hexafluorostibate", "formula": "C<SUB>14</SUB>H<SUB>32</SUB>F<SUB>6</SUB>NSb", "idout": "ABidZL", "mw": "450.17", "sample": [["Source:", "synthesized by the authors"], ["Purification:", "Karl Fischer titration;ion-selective electrode;NMR (proton)"], ["Purity:", "0.0093 water mass %;0.0051 halide impurity mass %;99 % (basis not specified)(dried by vacuum heating)"]]}], "dhead": [["Normal melting temperature, K"]], "footer": "", "data": [[["346.75", "0.5"]]], "solvent": null, "expmeth": "DSC/DTA"}