{"ref": {"title": "Carboxylation of styrene oxide catalyzed by quaternary onium salts under solvent-free conditions", "full": "Shim, Jae-Jin; Kim, Duck; Ra, Choon Sup (2006) Bull. Korean Chem. Soc. 27(5), 744-746."}, "constr": ["Pressure of 1 atm"], "phases": ["Crystal", "Liquid"], "components": [{"sample": [["Purification:", "not known"]], "name": "tetrabutylammonium chloride", "formula": "C<SUB>16</SUB>H<SUB>36</SUB>ClN", "mw": "277.92", "idout": "ABBXWo"}], "title": "Phase transition properties: Normal melting temperature", "dhead": [["Normal melting temperature, K"]], "data": [[["359.1", "0"]]], "solvent": null, "footer": "", "expmeth": "Visual observation"}