{"expmeth": "DSC/DTA", "solvent": null, "data": [[["362.1", "1"]]], "footer": "", "dhead": [["Normal melting temperature, K"]], "components": [{"mw": "238.92", "idout": "AAtxBt", "name": "cesium dinitramide", "formula": "CsN<SUB>3</SUB>O<SUB>4</SUB>", "sample": [["Source:", "synthesized by the authors"], ["Purity analysis:", "crystallization from solution"]]}], "title": "Phase transition properties: Normal melting temperature", "phases": ["Crystal", "Liquid"], "ref": {"title": "Alkali Dinitramide Salts. Part 1: Synthesis and Characterization", "full": "Berger, B.; Bircher, H. (2005) Propellants Explos. Pyrotech. 30(3), 184-190."}, "constr": ["Pressure of 1 atm"]}