{"constr": ["Pressure of 1 atm"], "ref": {"full": "Deng, Yupei; Li, Fahui; Shen, Yiyue; Jiang, Qianwen; Ouyang, Mai; Fu, Zhenhao; Du, Huajin; Chen, Zeyu; Wang, Guowei; Zhuang, Linghua (2023) J. Chem. Eng. Data 68(4), 835-847.", "title": "Experimental and DFT Studies on Electrochemical Performances of Ester-Containing Vinylimidazolium Ionic Liquids: Effect of the Ester Substituent and Anion"}, "phases": ["Crystal", "Liquid"], "title": "Phase transition properties: Normal melting temperature", "components": [{"sample": [["Source:", "synthesized by the authors"], ["Initial purification:", "NMR (proton)"], ["Initial purity:", "99.0 mass %"], ["Final purification:", "Karl Fischer titration"], ["Final purity:", "0.1 water mass %(dried by vacuum heating)"]], "idout": "ABqGGh", "mw": "489.40", "formula": "C<SUB>13</SUB>H<SUB>17</SUB>F<SUB>6</SUB>N<SUB>3</SUB>O<SUB>6</SUB>S<SUB>2</SUB>", "name": "1-(2-butoxy-2-oxoethyl)-3-vinylimidazolium bis((trifluoromethyl)sulfonyl)amide"}], "dhead": [["Normal melting temperature, K"]], "footer": "", "data": [[["306.05", "0.41"]]], "solvent": null, "expmeth": "Visual observation"}