{"constr": ["Pressure of 1 atm"], "ref": {"title": "Synthesis of 1,3-Dimethylimidazolium Chloride and Volumetric Property Investigations of Its Aqueous Solution", "full": "Dong, L.; Zheng, D. X.; Wei, Z.; Wu, X. H. (2009) Int. J. Thermophys. 30(5), 1480-1490."}, "phases": ["Crystal", "Liquid"], "components": [{"sample": [["Source:", "synthesized by the authors"], ["Purification:", "DSC"], ["Purity:", "99.4 % (basis not specified)"]], "idout": "AAZZTL", "mw": "132.59", "formula": "C<SUB>5</SUB>H<SUB>9</SUB>ClN<SUB>2</SUB>", "name": "1,3-dimethylimidazolium chloride"}], "title": "Phase transition properties: Normal melting temperature", "dhead": [["Normal melting temperature, K"]], "data": [[["399.1", "4"]]], "solvent": null, "footer": "", "expmeth": "Visual observation"}