{"title": "Phase transition properties: Normal melting temperature", "components": [{"name": "diethylammonium hydrogen sulfate", "formula": "C<SUB>4</SUB>H<SUB>13</SUB>NO<SUB>4</SUB>S", "idout": "AAgwZl", "mw": "171.21", "sample": [["Source:", "synthesized by the authors"], ["Purification:", "estimated by the compiler"], ["Purity:", "97 mass %(dried by vacuum heating)"]]}], "dhead": [["Normal melting temperature, K"]], "footer": "", "solvent": null, "data": [[["333.6", "1.1"]]], "expmeth": "DSC/DTA", "ref": {"title": "Bronsted acid-base ionic liquids for fuel cell electrolytes", "full": "Nakamoto, H.; Watanabe, M. (2007) Chem. Commun. No. 24, 2539-2541."}, "constr": ["Pressure of 1 atm"], "phases": ["Crystal", "Liquid"]}