{"expmeth": "DSC/DTA", "data": [[["452.69", "0.41"]]], "solvent": null, "footer": "", "dhead": [["Normal melting temperature, K"]], "components": [{"idout": "ABJATI", "mw": "317.29", "formula": "C<SUB>13</SUB>H<SUB>19</SUB>NO<SUB>8</SUB>", "name": "(alphaR)-alpha-[(1S)-1-aminoethyl]-3-hydroxy-benzenemethanol (2R,3R)-2,3-dihydroxybutanedioate", "sample": [["Source:", "commercial source"], ["Purity:", "98 mass %"]]}], "title": "Phase transition properties: Normal melting temperature", "phases": ["Crystal", "Liquid"], "ref": {"title": "Study of phase equilibria and the physicochemical properties of selected pharmaceuticals", "full": "Pobudkowska, A.; Jurkowska, B. A.; Wiatrowski, M. A. (2015) Fluid Phase Equilib. 406, 209-216."}, "constr": ["Pressure of 1 atm"]}