{"dhead": [["Normal melting temperature, K"]], "components": [{"idout": "ACLsqd", "mw": "602.46", "name": "L-phenylalanine tert-butyl ester bis(perfluoroethylsulfonyl)imide", "formula": "C<SUB>17</SUB>H<SUB>20</SUB>F<SUB>10</SUB>N<SUB>2</SUB>O<SUB>6</SUB>S<SUB>2</SUB>", "sample": [["Source:", "synthesized by the authors"], ["Purification:", "estimated by the compiler;Karl Fischer titration"], ["Purity:", "98 mass %;0.0443 water mass %(de-gassed by evacuation;dried in a desiccator;solvent extraction)"]]}], "title": "Phase transition properties: Normal melting temperature", "expmeth": "DSC/DTA", "data": [[["385.78", "0"]]], "solvent": null, "footer": "", "constr": ["Pressure of 1 atm"], "ref": {"title": "Synthesis and evaluation of L-phenylalanine ester-based chiral ionic liquids for GC stationary phase ability", "full": "Kimaru, I. W.; Morris, L.; Vassiliou, J.; Savage, N. (2017) J. Mol. Liq. 237, 193-200."}, "phases": ["Crystal", "Liquid"]}