{"components": [{"sample": [["Source:", "synthesized by the authors"], ["Purification:", "Karl Fischer titration"], ["Purity:", "0.08 water mass %(de-gassed by freezing and melting in vacuum)"]], "mw": "192.26", "idout": "AAkyCj", "formula": "C<SUB>8</SUB>H<SUB>20</SUB>N<SUB>2</SUB>O<SUB>3</SUB>", "name": "tetraethylammonium nitrate"}], "title": "Phase transition properties: Normal melting temperature", "dhead": [["Normal melting temperature, K"]], "data": [[["513", "0"]]], "solvent": null, "footer": "", "expmeth": "DSC/DTA", "constr": ["Pressure of 1 atm"], "ref": {"full": "Canongia Lopes, J. N.; Esperanca, J. M. S. S.; Ferro, A. M. d.; Pereiro, A. B.; Plechkova, N. V.; Rebelo, L. P. N.; Seddon, K. R.; Vazquez-Fernandez, I. (2016) J. Phys. Chem. B 120, 2397-2406.", "title": "Protonic Ammonium Nitrate Ionic Liquids and Their Mixtures: Insights into Their Thermophysical Behavior"}, "phases": ["Crystal", "Liquid"]}