{"constr": ["Pressure of 1 atm"], "ref": {"full": "Wachter, P.; Schreiner, C.; Schweiger, H.-G.; Gores, H. J. (2010) J. Chem. Thermodyn. 42(7), 900-903.", "title": "Determination of phase transition points of ionic liquids by combination of thermal analysis and conductivity measurements at very low heating and cooling rates"}, "phases": ["Crystal", "Liquid"], "components": [{"sample": [["Source:", "commercial source"], ["Initial purification:", "estimated by the compiler"], ["Initial purity:", "98 mass %"], ["Final purification:", "Karl Fischer titration"], ["Final purity:", "0.0041 water mass %(de-gassed by evacuation)"]], "idout": "ACIwcZ", "mw": "587.28", "name": "1-butyl-1-methylpyrrolidinium tris(pentafluoroethyl)trifluorophosphate", "formula": "C<SUB>15</SUB>H<SUB>20</SUB>F<SUB>18</SUB>NP"}], "title": "Phase transition properties: Normal melting temperature", "dhead": [["Normal melting temperature, K"]], "solvent": null, "data": [[["275.1", "1"]]], "footer": "", "expmeth": "Heating/Cooling curves"}