{"phases": ["Crystal", "Liquid"], "ref": {"title": "Thermodynamic Phase Behavior of Ionic Liquids", "full": "Domanska, U.; Zolek-Tryznowska, Z.; Krolikowski, M. (2007) J. Chem. Eng. Data 52(5), 1872-1880."}, "constr": ["Pressure of 1 atm"], "expmeth": "DSC/DTA", "solvent": null, "data": [[["355.5", "0.5"]]], "footer": "", "dhead": [["Normal melting temperature, K"]], "components": [{"name": "N-(2-hydroxyethyl)-N,N-dimethylhexan-1-aminium bromide", "formula": "C<SUB>10</SUB>H<SUB>24</SUB>BrNO", "idout": "AAwuZB", "mw": "254.21", "sample": [["Source:", "synthesized by the authors"], ["Purification:", "Karl Fischer titration"], ["Purity:", "0.018 water mass %(chemical reagent treatment;dried by vacuum heating)"]]}], "title": "Phase transition properties: Normal melting temperature"}