{"ref": {"full": "Annat, Gary; Forsyth, Maria; MacFarlane, Douglas R. (2012) J. Phys. Chem. B 116(28), 8251-8258.", "title": "Ionic Liquid Mixtures - Variations in Physical Properties and Their Origins in Molecular Structure"}, "constr": ["Pressure of 1 atm"], "phases": ["Crystal 1", "Liquid"], "components": [{"idout": "ABdMNo", "mw": "422.40", "formula": "C<SUB>11</SUB>H<SUB>20</SUB>F<SUB>6</SUB>N<SUB>2</SUB>O<SUB>4</SUB>S<SUB>2</SUB>", "name": "1-butyl-1-methylpyrrolidinium bis[(trifluoromethyl)sulfonyl]imide", "sample": [["Source:", "synthesized by the authors"], ["Purification:", "Karl Fischer titration;Karl Fischer titration"], ["Purity:", "0.001 water mass %;0.001 halide impurity mass %(dried by vacuum heating)"]]}], "title": "Phase transition properties: Normal melting temperature", "dhead": [["Normal melting temperature, K"]], "data": [[["256.1", "1"]]], "solvent": null, "footer": "", "expmeth": "DSC/DTA"}