{"constr": ["Pressure of 1 atm"], "ref": {"title": "New Energetic Salts Based on Nitrogen-Containing Heterocycles", "full": "Xue, H.; Gao, Y.; Twamley, B.; Shreeve, J. M. (2005) Chem. Mater. 17, 191-198."}, "phases": ["Crystal", "Liquid"], "title": "Phase transition properties: Normal melting temperature", "components": [{"idout": "AAshsX", "mw": "232.20", "formula": "C<SUB>7</SUB>H<SUB>12</SUB>N<SUB>4</SUB>O<SUB>5</SUB>", "name": "3-ethyl-1,2-dimethyl-4-nitro-1H-imidazol-3-ium nitrate", "sample": [["Source:", "synthesized by the authors"], ["Purification:", "estimated by the compiler"], ["Purity:", "98 mol %"]]}], "dhead": [["Normal melting temperature, K"]], "footer": "", "data": [[["338.1", "1"]]], "solvent": null, "expmeth": "DSC/DTA"}