{"constr": ["Pressure of 1 atm"], "ref": {"full": "Hu, H.-C.; Soriano, A. N.; Leron, R. B.; Li, M.-H. (2011) Thermochim. Acta 519(1-2), 44-9.", "title": "Molar heat capacity of four aqueous ionic liquid mixtures"}, "phases": ["Crystal", "Liquid"], "components": [{"idout": "AAuItX", "mw": "240.05", "formula": "C<SUB>9</SUB>H<SUB>17</SUB>BF<SUB>4</SUB>N<SUB>2</SUB>", "name": "1-butyl-2,3-dimethylimidazolium tetrafluoroborate", "sample": [["Source:", "commercial source"], ["Initial purification:", "stated by supplier"], ["Initial purity:", "99 mass %"], ["Final purification:", "Karl Fischer titration"], ["Final purity:", "0.5 water mass %(dried by vacuum heating)"]]}], "title": "Phase transition properties: Normal melting temperature", "dhead": [["Normal melting temperature, K"]], "data": [[["305.1", "1"]]], "solvent": null, "footer": "", "expmeth": "DSC/DTA"}