{"phases": ["Crystal", "Liquid"], "constr": ["Pressure of 1 atm"], "ref": {"title": "Femtosecond Raman-Induced Kerr Effect Study of Temperature-Dependent Intermolecular Dynamics in Pyrrolidinium-Based Ionic Liquids: Effects of Anion Species", "full": "Kakinuma, S.; Shirota, H. (2019) J. Phys. Chem. B 123(6), 1307-1323."}, "expmeth": "DSC/DTA", "data": [[["292", "2"]]], "solvent": null, "footer": "", "dhead": [["Normal melting temperature, K"]], "components": [{"formula": "C<SUB>12</SUB>H<SUB>20</SUB>F<SUB>6</SUB>N<SUB>2</SUB>O<SUB>4</SUB>S<SUB>2</SUB>", "name": "1-butyl-1-methylpyrrolidinium cyclohexafluoropropane-1,3-bis(sulfonyl)imide", "idout": "ABfcjr", "mw": "434.41", "sample": [["Source:", "synthesized by the authors"], ["Purification:", "Karl Fischer titration;estimated by the compiler"], ["Purity:", "0.0055 water mass %;98 mass %(dried by vacuum heating;solvent extraction)"]]}], "title": "Phase transition properties: Normal melting temperature"}