{"components": [{"idout": "ABIKXU", "mw": "313.03", "formula": "CsF<SUB>2</SUB>NO<SUB>4</SUB>S<SUB>2</SUB>", "name": "cesium bis(fluorosulfonyl)amide", "sample": [["Source:", "synthesized by the authors"], ["Purification:", "estimated by the compiler"], ["Purity:", "99 mol %(crystallization from solution)"]]}], "title": "Phase transition properties: Normal melting temperature", "dhead": [["Normal melting temperature, K"]], "data": [[["386", "4"]]], "solvent": null, "footer": "", "expmeth": "DSC/DTA", "constr": ["Pressure of 1 atm"], "ref": {"title": "Thermal Properties of Alkali Bis(fluorosulfonyl)amides and Their Binary Mixtures", "full": "Kubota, K.; Nohira, T.; Hagiwara, R. (2010) J. Chem. Eng. Data 55(9), 3142-3146."}, "phases": ["Crystal", "Liquid"]}