{"constr": ["Pressure of 1 atm"], "ref": {"full": "Ngo, H. L.; LeCompte, K.; Hargens, L.; McEwen, A. B. (2000) Thermochim. Acta 357-358, 97-102.", "title": "Thermal properties of imidazolium ionic liquids"}, "phases": ["Crystal", "Liquid"], "title": "Phase transition properties: Normal melting temperature", "components": [{"idout": "AAeuTF", "mw": "160.65", "name": "1-methyl-3-propylimidazolium chloride", "formula": "C<SUB>7</SUB>H<SUB>13</SUB>ClN<SUB>2</SUB>", "sample": [["Source:", "synthesized by the authors"], ["Purification:", "estimated by the compiler"], ["Purity:", "97 % (basis not specified)(dried by oven heating)"]]}], "dhead": [["Normal melting temperature, K"]], "footer": "", "data": [[["333.1", "2"]]], "solvent": null, "expmeth": "DSC/DTA"}