{"constr": ["Pressure of 1 atm"], "ref": {"title": "Synthesis and physical properties of tris(dialkylamino)cyclopropenium bistriflamide ionic liquids", "full": "Walst, K. J.; Yunis, R.; Bayley, P. M.; MacFarlane, D. R.; Ward, C. J.; Wang, R.; Curnow, O. J. (2015) RSC Adv. 5(49), 39565-39579."}, "phases": ["Crystal", "Liquid"], "title": "Phase transition properties: Normal melting temperature", "components": [{"idout": "ACJKPs", "mw": "588.67", "formula": "C<SUB>21</SUB>H<SUB>38</SUB>F<SUB>6</SUB>N<SUB>4</SUB>O<SUB>4</SUB>S<SUB>2</SUB>", "name": "bis(diethylamino)(dibutylamino)cyclopropenium bis(trifluoromethanesulfonyl)amide", "sample": [["Source:", "synthesized by the authors"], ["Purification:", "estimated by the compiler"], ["Purity:", "98 mass %(dried by vacuum heating;solvent extraction)"]]}], "dhead": [["Normal melting temperature, K"]], "footer": "", "data": [[["269.1", "2"]]], "solvent": null, "expmeth": "DSC/DTA"}