{"components": [{"sample": [["Source:", "synthesized by the authors"], ["Purification:", "estimation"], ["Purity:", "98 mass %"]], "name": "N,N-diethyl-N-methylpropan-1-aminium trifluoro(perfluoropropyl)borate", "formula": "C<SUB>11</SUB>H<SUB>20</SUB>BF<SUB>10</SUB>N", "idout": "ABSevf", "mw": "367.08"}], "title": "Phase transition properties: Normal melting temperature", "dhead": [["Normal melting temperature, K"]], "data": [[["330.1", "1"]]], "solvent": null, "footer": "", "expmeth": "DSC/DTA", "constr": ["Pressure of 1 atm"], "ref": {"title": "Low-Melting, Low-Viscous, Hydrophobic Ionic Liquids: Aliphatic Quaternary Ammonium Salts with Perfluoroalkyltrifluoroborates", "full": "Zhou, Z.-B.; Matsumoto, H.; Tatsumi, K. (2005) Chem. Eur. J. 11, 752-766."}, "phases": ["Crystal 1", "Liquid"]}