{"components": [{"name": "N-ethyl-N,N-dimethylprop-2-en-1-aminium dicyanamide", "formula": "C<SUB>9</SUB>H<SUB>16</SUB>N<SUB>4</SUB>", "idout": "AAiinz", "mw": "180.25", "sample": [["Source:", "synthesized by the authors"], ["Purification:", "estimated by the compiler"], ["Purity:", "98 mass %(dried by vacuum heating;impurity adsorption)"]]}], "title": "Phase transition properties: Normal melting temperature", "dhead": [["Normal melting temperature, K"]], "solvent": null, "data": [[["240.2", "2"]]], "footer": "", "expmeth": "DSC/DTA", "constr": ["Pressure of 1 atm"], "ref": {"title": "Physicochemical properties and theoretical studies of novel fragile ionic liquids based on N-allyl-N,N-dimethylethylammonium cation", "full": "Hachicha, R.; Zarrougui, R.; Messaoudi, S.; le Vot, S.; Fontaine, O.; Favier, F.; Ghodbane, O. (2019) J. Mol. Liq. 284, 522-535."}, "phases": ["Crystal", "Liquid"]}