{"ref": {"title": "Ionic Liquid Mixtures - Variations in Physical Properties and Their Origins in Molecular Structure", "full": "Annat, Gary; Forsyth, Maria; MacFarlane, Douglas R. (2012) J. Phys. Chem. B 116(28), 8251-8258."}, "constr": ["Pressure of 1 atm"], "phases": ["Crystal", "Liquid"], "title": "Phase transition properties: Normal melting temperature", "components": [{"idout": "ABigFi", "mw": "450.46", "name": "1-hexyl-1-methylpyrrolidinium bis(trifluoromethanesulfonyl)imide", "formula": "C<SUB>13</SUB>H<SUB>24</SUB>F<SUB>6</SUB>N<SUB>2</SUB>O<SUB>4</SUB>S<SUB>2</SUB>", "sample": [["Source:", "synthesized by the authors"], ["Purification:", "Karl Fischer titration;Karl Fischer titration"], ["Purity:", "0.001 water mass %;0.001 halide impurity mass %(dried by vacuum heating)"]]}], "dhead": [["Normal melting temperature, K"]], "footer": "", "data": [[["274.1", "1"]]], "solvent": null, "expmeth": "DSC/DTA"}