{"ref": {"full": "Xue, H.; Gao, Y.; Twamley, B.; Shreeve, J. M. (2005) Chem. Mater. 17, 191-198.", "title": "New Energetic Salts Based on Nitrogen-Containing Heterocycles"}, "constr": ["Pressure of 1 atm"], "phases": ["Crystal", "Liquid"], "components": [{"sample": [["Source:", "synthesized by the authors"], ["Purification:", "estimated by the compiler"], ["Purity:", "98 mol %"]], "idout": "AAjzmU", "mw": "187.12", "formula": "C<SUB>3</SUB>H<SUB>5</SUB>N<SUB>7</SUB>O<SUB>3</SUB>", "name": "3-azido-5-methyl-1H-1,2,4-triazol-1-ium nitrate"}], "title": "Phase transition properties: Normal melting temperature", "dhead": [["Normal melting temperature, K"]], "solvent": null, "data": [[["391.1", "1"]]], "footer": "", "expmeth": "DSC/DTA"}