{"ref": {"full": "Burton, Rachel D.; Siegel, David J.; Muller II, Joseph E.; Regner, Matthew; Sheng, Yinghong; McManus, Gregory J.; MacDonald Jr., James H.; Mirjafari, Arsalan (2019) J. Mol. Liq. 296, 111758.", "title": "From gene delivery agents to ionic liquids: The impacts of cation structure and anion identity on liquefaction"}, "constr": ["Pressure of 1 atm"], "phases": ["Crystal", "Liquid"], "title": "Phase transition properties: Normal melting temperature", "components": [{"idout": "ADJqdF", "mw": "862.21", "formula": "C<SUB>37</SUB>H<SUB>69</SUB>F<SUB>6</SUB>N<SUB>3</SUB>O<SUB>4</SUB>S<SUB>4</SUB>", "name": "3-(2,3-bis(tetradecylthio)propyl)-1-methylimidazolium bis(trifluoromethanesulfonyl)amide", "sample": [["Source:", "synthesized by the authors"], ["Purification:", "estimated by the compiler"], ["Purity:", "98 mass %(dried by vacuum heating;solvent extraction)"]]}], "dhead": [["Normal melting temperature, K"]], "footer": "", "data": [[["285.9", "1.1"]]], "solvent": null, "expmeth": "DSC/DTA"}