{"expmeth": "unknown", "data": [[["288.1", "6"]]], "solvent": null, "footer": "", "dhead": [["Normal melting temperature, K"]], "components": [{"name": "1-methyl-3-oleylimidazolium tetrafluoroborate", "formula": "C<SUB>22</SUB>H<SUB>41</SUB>BF<SUB>4</SUB>N<SUB>2</SUB>", "mw": "420.39", "idout": "ABcrxE", "sample": [["Purity analysis:", "unspecified"]]}], "title": "Phase transition properties: Normal melting temperature", "phases": ["Crystal", "Liquid"], "ref": {"title": "THERMOGRAPHIC MATERIALS CONTAINING IONIC LIQUIDS", "full": "Sakizadeh, K.; Olson, L. P.; Cowdery-Corvan, P. J.; Ishida, T.; Whitcomb, D. R. (2007) U.S. Patent US7163786B1, 2007, Jan. 16."}, "constr": ["Pressure of 1 atm"]}