{"components": [{"mw": "322.39", "idout": "ABJzqe", "name": "1-butyl-1-methylpyrrolidinium bis(fluorosulfonyl)amide", "formula": "C<SUB>9</SUB>H<SUB>20</SUB>F<SUB>2</SUB>N<SUB>2</SUB>O<SUB>4</SUB>S<SUB>2</SUB>", "sample": [["Source:", "synthesized by the authors"], ["Purification:", "chemical analysis"], ["Purity:", "99.9 % (basis not specified)"]]}], "title": "Phase transition properties: Normal melting temperature", "dhead": [["Normal melting temperature, K"]], "data": [[["258.1", "6"]]], "solvent": null, "footer": "", "expmeth": "DSC/DTA", "ref": {"full": "Tokuda, H.; Ishii, K.; Susan, M. A. B. H.; Tsuzuki, S.; Hayamizu, K.; Watanabe, M. (2006) J. Phys. Chem. B 110(6), 2833-2839.", "title": "Physicochemical Properties and Structures of Room-Temperature Ionic Liquids. 3.  Variation of Cationic Structures"}, "constr": ["Pressure of 1 atm"], "phases": ["Crystal", "Liquid"]}