{"components": [{"sample": [["Source:", "synthesized by the authors"]], "idout": "ABFdNR", "mw": "299.31", "formula": "C<SUB>11</SUB>H<SUB>16</SUB>F<SUB>3</SUB>NO<SUB>3</SUB>S", "name": "1-butyl-4-methylpyridinium trifluoromethanesulfonate"}], "title": "Phase transition properties: Normal melting temperature", "dhead": [["Normal melting temperature, K"]], "data": [[["311.1", "2"]]], "solvent": null, "footer": "", "expmeth": "DSC/DTA", "ref": {"full": "Papaiconomou, N.; Yakelis, N.; Salminen, J.; Bergman, R.; Prausnitz, J. M. (2006) J. Chem. Eng. Data 51(4), 1389-1393.", "title": "Synthesis and Properties of Seven Ionic Liquids Containing 1-Methyl-3-octylimidazolium or 1-Butyl-4-methylpyridinium Cations"}, "constr": ["Pressure of 1 atm"], "phases": ["Crystal", "Liquid"]}