{"ref": {"title": "Ferrocenium ionic liquids: phase transitions and physical properties", "full": "Funasako, Y.; Abe, A.; Mochida, T. (2012) Thermochim. Acta 532, 78-82."}, "constr": ["Pressure of 1 atm"], "phases": ["Crystal", "Liquid"], "components": [{"formula": "C<SUB>30</SUB>H<SUB>38</SUB>FeN<SUB>4</SUB>", "name": "1-hexyl-1',2,2',3,3',4,4',5-octamethylferrocenium tetracyanoethylenide", "idout": "ABuJUW", "mw": "510.51", "sample": [["Source:", "synthesized by the authors"]]}], "title": "Phase transition properties: Normal melting temperature", "dhead": [["Normal melting temperature, K"]], "solvent": null, "data": [[["354.05", "0.5"]]], "footer": "", "expmeth": "DSC/DTA"}