{"constr": ["Pressure of 1 atm"], "ref": {"title": "Phase Behavior of Ionic Liquid- LiX Mixtures: PyrroIidinium Cations and TFSI- Anions", "full": "Henderson, W. A.; Passerini, S. (2004) Chem. Mater. 16, 2881-2885."}, "phases": ["Crystal", "Liquid"], "dhead": [["Normal melting temperature, K"]], "components": [{"name": "1-butyl-1-methylpyrrolidinium bis[(trifluoromethyl)sulfonyl]imide", "formula": "C<SUB>11</SUB>H<SUB>20</SUB>F<SUB>6</SUB>N<SUB>2</SUB>O<SUB>4</SUB>S<SUB>2</SUB>", "idout": "ABdMNo", "mw": "422.40", "sample": [["Source:", "synthesized by the authors"], ["Purity analysis:", "dried by vacuum heating"]]}], "title": "Phase transition properties: Normal melting temperature", "expmeth": "DSC/DTA", "data": [[["270.1", "2"]]], "solvent": null, "footer": ""}