{"components": [{"sample": [["Source:", "synthesized by the authors"], ["Purification:", "estimated by the compiler"], ["Purity:", "98 mass %(dried by vacuum heating;solvent extraction)"]], "mw": "474.66", "idout": "ABnOFC", "name": "3-methyl-1-tetradecyl-2-(thiazol-4-yl)benzimidazolium nitrate", "formula": "C<SUB>25</SUB>H<SUB>38</SUB>N<SUB>4</SUB>O<SUB>3</SUB>S"}], "title": "Phase transition properties: Normal melting temperature", "dhead": [["Normal melting temperature, K"]], "solvent": null, "data": [[["334.1", "2"]]], "footer": "", "expmeth": "Visual observation", "ref": {"full": "El Bourakadi, K.; Merghoub, N.; Hicham, G.; Mekhzoum, M. E. M.; Essassi, E. M.; Qaiss, A. e. k.; Bouhfid, R. (2019) J. Mol. Liq. 282, 63-69.", "title": "Synthesis, characterization and in vitro antiproliferative evaluation of ionic liquids based on alkyl-substituted thiabendazolium"}, "constr": ["Pressure of 1 atm"], "phases": ["Crystal", "Liquid"]}