{"ref": {"full": "Domanska, U.; Rekawek, A.; Marciniak, A. (2008) J. Chem. Eng. Data 53(5), 1126-1132.", "title": "Solubility of 1-Alkyl-3-ethylimidazolium-Based Ionic Liquids in Water and 1-Octanol"}, "constr": ["Pressure of 1 atm"], "phases": ["Crystal", "Liquid"], "components": [{"sample": [["Source:", "synthesized by the authors"], ["Purification:", "Karl Fischer titration"], ["Purity:", "0.0023 water mass %(chemical reagent treatment;dried by vacuum heating;molecular sieve treatment)"]], "mw": "405.33", "idout": "ABZxxd", "formula": "C<SUB>9</SUB>H<SUB>13</SUB>F<SUB>6</SUB>N<SUB>3</SUB>O<SUB>4</SUB>S<SUB>2</SUB>", "name": "1,3-diethylimidazolium bis[(trifluoromethyl)sulfonyl]imide"}], "title": "Phase transition properties: Normal melting temperature", "dhead": [["Normal melting temperature, K"]], "data": [[["262.6", "0.4"]]], "solvent": null, "footer": "", "expmeth": "DSC/DTA"}