{"constr": ["Pressure of 1 atm"], "ref": {"full": "Schlosser, Manfred (1964) Chem. Ber. 97(11), 3219-33.", "title": "Phosphorus-organic compounds. I. Method for the preparation of selectively deuterated compounds"}, "phases": ["Crystal", "Liquid"], "title": "Phase transition properties: Normal melting temperature", "components": [{"idout": "ABQkxU", "mw": "357.23", "formula": "C<SUB>19</SUB>H<SUB>18</SUB>BrP", "name": "methyltriphenylphosphonium bromide", "sample": [["Purity analysis:", "unspecified"]]}], "dhead": [["Normal melting temperature, K"]], "footer": "", "data": [[["506.15", "0"]]], "solvent": null, "expmeth": false}