{"constr": ["Pressure of 1 atm"], "ref": {"title": "Novel amino acid-based ionic liquid analogues: neutral hydroxylic and sulfur-containing amino acids", "full": "Mjalli, F. S.; Al-Hajri, R.; Al-Muhtaseb, A.; Ahmed, O.; Nagaraju, M. (2016) Asia-Pac. J. Chem. Eng. 11(5), 683-694."}, "phases": ["Crystal", "Liquid"], "components": [{"sample": [["Source:", "commercial source"], ["Initial purification:", "stated by supplier"], ["Initial purity:", "99 % (basis not specified)"], ["Final purification:", "Karl Fischer titration"], ["Final purity:", "0.02 water mass %(dried by vacuum heating)"]], "formula": "C<SUB>16</SUB>H<SUB>36</SUB>ClN", "name": "tetrabutylammonium chloride", "idout": "ABBXWo", "mw": "277.92"}], "title": "Phase transition properties: Normal melting temperature", "dhead": [["Normal melting temperature, K"]], "solvent": null, "data": [[["317.1", "1"]]], "footer": "", "expmeth": "DSC/DTA"}