{"title": "Phase transition properties: Normal melting temperature", "components": [{"name": "tris(dihexylamino)cyclopropenium bis(trifluoromethanesulfonyl)amide", "formula": "C<SUB>41</SUB>H<SUB>78</SUB>F<SUB>6</SUB>N<SUB>4</SUB>O<SUB>4</SUB>S<SUB>2</SUB>", "idout": "ADLIaY", "mw": "869.21", "sample": [["Source:", "synthesized by the authors"], ["Purification:", "estimated by the compiler;Karl Fischer titration;ion-selective electrode"], ["Purity:", "98 mass %;0.0020 water mass %;0.0180 halide impurity mass %(dried by vacuum heating;solvent extraction)"]]}], "dhead": [["Normal melting temperature, K"]], "footer": "", "data": [[["276.1", "2"]]], "solvent": null, "expmeth": "DSC/DTA", "ref": {"full": "Walst, K. J.; Yunis, R.; Bayley, P. M.; MacFarlane, D. R.; Ward, C. J.; Wang, R.; Curnow, O. J. (2015) RSC Adv. 5(49), 39565-39579.", "title": "Synthesis and physical properties of tris(dialkylamino)cyclopropenium bistriflamide ionic liquids"}, "constr": ["Pressure of 1 atm"], "phases": ["Crystal", "Liquid"]}