{"ref": {"title": "Phase behaviour and heat capacities of selected 1-ethyl-3-methylimidazolium-based ionic liquids", "full": "Stejfa, Vojtech; Rohlicek, Jan; Cervinka, Ctirad (2020) J. Chem. Thermodyn. 142, 106020."}, "constr": ["Pressure of 1 atm"], "phases": ["Crystal", "Liquid"], "title": "Phase transition properties: Normal melting temperature", "components": [{"sample": [["Source:", "commercial source"], ["Initial purification:", "stated by supplier"], ["Initial purity:", "98 mol %"], ["Final purification:", "DSC;Karl Fischer titration"], ["Final purity:", "99.0 mol %;0.0145 water mass %(dried by vacuum heating)"]], "name": "1-ethyl-3-methylimidazolium dimethylphosphate", "formula": "C<SUB>8</SUB>H<SUB>17</SUB>N<SUB>2</SUB>O<SUB>4</SUB>P", "idout": "AAtWRk", "mw": "236.21"}], "dhead": [["Normal melting temperature, K"]], "footer": "", "data": [[["312.9", "0.7"]]], "solvent": null, "expmeth": "DSC/DTA"}