{"title": "Phase transition properties: Normal melting temperature", "components": [{"idout": "ABavQD", "mw": "410.35", "name": "N-ethyl-N-methylmorpholinium bis(trifluoromethanesulfonyl)imide", "formula": "C<SUB>9</SUB>H<SUB>16</SUB>F<SUB>6</SUB>N<SUB>2</SUB>O<SUB>5</SUB>S<SUB>2</SUB>", "sample": [["Source:", "synthesized by the authors"], ["Purification:", "NMR (proton);Karl Fischer titration"], ["Purity:", "96 mass %;0.029 water mass %;0.012 halide impurity mass %(dried by vacuum heating;solvent extraction)"]]}], "dhead": [["Normal melting temperature, K"]], "footer": "", "data": [[["302.12", "0.87"]]], "solvent": null, "expmeth": "DSC/DTA", "constr": ["Pressure of 1 atm"], "ref": {"full": "Zawadzki, M.; Paduszynski, K.; Krolikowska, M.; Grzechnik, E. (2020) J. Mol. Liq. 307, 112914.", "title": "COSMO-RS predicted 1-octanol/water partition coefficient as useful ion descriptor for predicting phase behavior of aqueous solutions of ionic liquids"}, "phases": ["Crystal 1", "Liquid"]}