{"title": "Phase transition properties: Normal melting temperature", "components": [{"idout": "ABEyyQ", "mw": "296.25", "formula": "C<SUB>12</SUB>H<SUB>26</SUB>BrNO<SUB>2</SUB>", "name": "N,N,N-triethyl(4-ethoxy-4-oxobutyl)-1-aminium bromide", "sample": [["Source:", "synthesized by the authors"], ["Initial purification:", "estimated by the compiler"], ["Initial purity:", "98 mass %"], ["Final purification:", "Karl Fischer titration"], ["Final purity:", "0.06 water mass %(de-gassed by evacuation)"]]}], "dhead": [["Normal melting temperature, K"]], "footer": "", "data": [[["351.1", "1"]]], "solvent": null, "expmeth": "DSC/DTA", "constr": ["Pressure of 1 atm"], "ref": {"title": "Synthesis and characterization of analogues of glycine-betaine ionic liquids and their use in the formation of aqueous biphasic systems", "full": "Pereira, Matheus M.; Pedro, Sonia N.; Gomes, Joana; Sintra, Tania E.; Ventura, Sonia P.M.; Coutinho, Joao A.P.; Freire, Mara G.; Mohamadou, Aminou (2019) Fluid Phase Equilib. 494, 239-245."}, "phases": ["Crystal", "Liquid"]}