{"expmeth": "DSC/DTA", "data": [[["376.83", "0.7"]]], "solvent": null, "footer": "", "dhead": [["Normal melting temperature, K"]], "components": [{"name": "1-butylpyridinium bromide", "formula": "C<SUB>9</SUB>H<SUB>14</SUB>BrN", "mw": "216.12", "idout": "AApdQs", "sample": [["Source:", "synthesized by the authors"], ["Purification:", "Karl Fischer titration;NMR (proton)"], ["Purity:", "0.0612 water mass %;95.0 mass %(crystallization from solution;dried by vacuum heating)"]]}], "title": "Phase transition properties: Normal melting temperature", "phases": ["Crystal 1", "Liquid"], "ref": {"full": "Krolikowska, Marta; Zawadzki, Maciej; Kuna, Tomasz (2019) Thermochim. Acta 671, 220-231.", "title": "Physicochemical and thermodynamic properties of the {1-alkyl-1-methylpiperidinium bromide [C1Cn=2,4PIP][Br], or 1-butylpyridinium bromide, [C4Py][Br], or tri(ethyl)butylammonium bromide [N2,2,2,4] [Br] + water} binary systems"}, "constr": ["Pressure of 1 atm"]}