{"ref": {"title": "Synthesis and physical properties of tris(dialkylamino)cyclopropenium dicyanamide ionic liquids", "full": "Curnow, O. J.; Polson, M. I. J.; Walst, K. J.; Yunis, R. (2018) RSC Adv. 8(50), 28313-28322."}, "constr": ["Pressure of 1 atm"], "phases": ["Crystal", "Liquid"], "components": [{"idout": "ABUBNX", "mw": "374.58", "formula": "C<SUB>21</SUB>H<SUB>38</SUB>N<SUB>6</SUB>", "name": "bis(diethylamino)(dibutylamino)cyclopropenium dicyanamide", "sample": [["Source:", "synthesized by the authors"], ["Purification:", "estimated by the compiler"], ["Purity:", "98 mass %(dried by vacuum heating;solvent extraction)"]]}], "title": "Phase transition properties: Normal melting temperature", "dhead": [["Normal melting temperature, K"]], "data": [[["303.1", "2"]]], "solvent": null, "footer": "", "expmeth": "DSC/DTA"}