{"constr": ["Pressure of 1 atm"], "ref": {"title": "Drug anion based surface active ionic liquids: Molecular interactions, surface activity and micellization behavior in aqueous solutions", "full": "Sastry, N. V.; Trivedi, P. A. (2021) J. Mol. Liq. 336, 116345."}, "phases": ["Crystal", "Liquid"], "components": [{"formula": "C<SUB>21</SUB>H<SUB>39</SUB>NO", "name": "1-hexadecylpyridinium hydroxide", "idout": "ABJrbY", "mw": "321.55", "sample": [["Source:", "synthesized by the authors"], ["Purification:", "estimated by the compiler"], ["Purity:", "97 mol %(dried by vacuum heating)"]]}], "title": "Phase transition properties: Normal melting temperature", "dhead": [["Normal melting temperature, K"]], "data": [[["342.6", "1.1"]]], "solvent": null, "footer": "", "expmeth": "DSC/DTA"}