{"ref": {"title": "Solid liquid equilibria for systems containing 1-butyl-3-methylimidazolium chloride", "full": "Domanska, U.; Bogel-Lukasik, E. (2004) Fluid Phase Equilib. 218, 123-129."}, "constr": ["Pressure of 1 atm"], "phases": ["Crystal", "Liquid"], "components": [{"sample": [["Source:", "commercial source"], ["Purification:", "stated by supplier"], ["Purity:", "98 mass %"], ["Purity analysis:", "molecular sieve treatment"]], "idout": "AAherF", "mw": "174.67", "name": "1-butyl-3-methylimidazolium chloride", "formula": "C<SUB>8</SUB>H<SUB>15</SUB>ClN<SUB>2</SUB>"}], "title": "Phase transition properties: Normal melting temperature", "dhead": [["Normal melting temperature, K"]], "data": [[["341.94", "0.5"]]], "solvent": null, "footer": "", "expmeth": "DSC/DTA"}