{"constr": ["Pressure of 1 atm"], "ref": {"title": "Surface active fatty acid ILs: Influence of the hydrophobic tail and/or the imidazolium hydroxyl functionalization on aggregates formation", "full": "Mezzetta, A.; Luczak, J.; Woch, J.; Chiappe, C.; Nowicki, J.; Guazzelli, L. (2019) J. Mol. Liq. 289, 111155."}, "phases": ["Crystal", "Liquid"], "components": [{"sample": [["Source:", "synthesized by the authors"], ["Purification:", "estimated by the compiler"], ["Purity:", "97 mass %(dried by vacuum heating)"]], "formula": "C<SUB>24</SUB>H<SUB>46</SUB>N<SUB>2</SUB>O<SUB>2</SUB>", "name": "1-ethyl-3-methylimidazolium stearate", "mw": "394.64", "idout": "ABXucN"}], "title": "Phase transition properties: Normal melting temperature", "dhead": [["Normal melting temperature, K"]], "data": [[["333.9", "1.1"]]], "solvent": null, "footer": "", "expmeth": "DSC/DTA"}