{"phases": ["Crystal", "Liquid"], "constr": ["Pressure of 1 atm"], "ref": {"title": "Characterization and solution properties of adamantane-containing quaternary-ammonium-salt-type amphiphilic ionic liquids", "full": "Kawai, R.; Yada, S.; Yoshimura, T. (2019) J. Mol. Liq. 294, 111586."}, "expmeth": "DSC/DTA", "data": [[["375.4", "5"]]], "solvent": null, "footer": "", "dhead": [["Normal melting temperature, K"]], "components": [{"formula": "C<SUB>24</SUB>H<SUB>46</SUB>F<SUB>2</SUB>N<SUB>2</SUB>O<SUB>4</SUB>S<SUB>2</SUB>", "name": "N-adamantyl-N,N-dimethyl-N-dodecylammonium bis(fluorosulfonyl)amide", "mw": "528.76", "idout": "ABxjNN", "sample": [["Source:", "synthesized by the authors"]]}], "title": "Phase transition properties: Normal melting temperature"}