{"components": [{"sample": [["Source:", "synthesized by the authors"], ["Purification:", "estimated by the compiler"], ["Purity:", "98 mass %(crystallization from solution;dried by vacuum heating)"]], "mw": "391.89", "idout": "ABXSBa", "name": "tris(2-hydroxypropyl)ammonium 2-methyl-4-chlorophenoxyacetate", "formula": "C<SUB>18</SUB>H<SUB>30</SUB>ClNO<SUB>6</SUB>"}], "title": "Phase transition properties: Normal melting temperature", "dhead": [["Normal melting temperature, K"]], "solvent": null, "data": [[["371.1", "2"]]], "footer": "", "expmeth": "Visual observation", "ref": {"full": "Kondratenko, Y. A.; Antuganov, D. O.; Kadnikova, O. Yu.; Zolotarev, A. A.; Ugolkov, V. L.; Nadporojskii, M. A.; Kochina, T. A. (2021) J. Mol. Liq. 324, 114717.", "title": "Synthesis, crystal structure and properties of tris(2-hydroxypropyl)ammonium based protic ionic liquids and protic molten salts"}, "constr": ["Pressure of 1 atm"], "phases": ["Crystal", "Liquid"]}