{"title": "Phase transition properties: Normal melting temperature", "components": [{"sample": [["Purity analysis:", "unspecified"]], "mw": "434.59", "idout": "ABfdDn", "name": "tetrahexylammonium bromide", "formula": "C<SUB>24</SUB>H<SUB>52</SUB>BrN"}], "dhead": [["Normal melting temperature, K"]], "footer": "", "data": [[["374.9", "0"]]], "solvent": null, "expmeth": "Differential scanning calorimeter", "constr": ["Pressure of 1 atm"], "ref": {"title": "Mesophases of Alkylammonium Salts. I. First-Order Transitions", "full": "Xenopoulous, A.; Cheng, J.; Yasuniwa, M.; Wunderlich, B. (1992) Mol. Cryst. Liq. Cryst. 214, 63-79."}, "phases": ["Crystal", "Liquid"]}