{"ref": {"full": "Xue, H.; Arritt, S. W.; Twamley, B.; Shreeve, J. M. (2004) Inorg. Chem. 43, 7972-7977.", "title": "Energetic Salts of N-Aminoazoles"}, "constr": ["Pressure of 1 atm"], "phases": ["Crystal", "Liquid"], "dhead": [["Normal melting temperature, K"]], "components": [{"mw": "184.54", "idout": "AAjZhA", "formula": "C<SUB>2</SUB>H<SUB>5</SUB>ClN<SUB>4</SUB>O<SUB>4</SUB>", "name": "1-amino-1H-1,2,4-triazol-1-ium perchlorate", "sample": [["Source:", "synthesized by the authors"], ["Purification:", "estimated by the compiler"], ["Purity:", "97 % (basis not specified)(dried by vacuum heating)"]]}], "title": "Phase transition properties: Normal melting temperature", "expmeth": "DSC/DTA", "data": [[["364.1", "1"]]], "solvent": null, "footer": ""}