{"constr": ["Pressure of 1 atm"], "ref": {"title": "Thermotropic liquid-crystalline behavior of some single- and double-chained pyridinium amphiphiles", "full": "Sudholter, E. J. R.; Engberts, J. B. F. N.; de Jeu, W. H. (1982) J. Phys. Chem. 86, 1908-13."}, "phases": ["Crystal 1", "Liquid"], "components": [{"sample": [["Source:", "synthesized by the authors"]], "idout": "ABWtUd", "mw": "389.37", "name": "4-dodecyl-1-methylpyridinium iodide", "formula": "C<SUB>18</SUB>H<SUB>32</SUB>IN"}], "title": "Phase transition properties: Normal melting temperature", "dhead": [["Normal melting temperature, K"]], "solvent": null, "data": [[["386.15", "0.6"]]], "footer": "", "expmeth": false}