{"dhead": [["Normal melting temperature, K"]], "components": [{"idout": "ABfwRJ", "mw": "436.43", "formula": "C<SUB>12</SUB>H<SUB>22</SUB>F<SUB>6</SUB>N<SUB>2</SUB>O<SUB>4</SUB>S<SUB>2</SUB>", "name": "1-isobutyl-1-methylpiperidinium bis((trifluoromethyl)sulfonyl)imide", "sample": [["Source:", "commercial source"], ["Initial purification:", "NMR (proton)"], ["Initial purity:", "98 mol %"], ["Final purification:", "Karl Fischer titration;ion chromatography"], ["Final purity:", "0.0017 water mass %;0.01 halide impurity mass %"]]}], "title": "Phase transition properties: Normal melting temperature", "expmeth": "DSC/DTA", "data": [[["287.9", "1.1"]]], "solvent": null, "footer": "", "constr": ["Pressure of 1 atm"], "ref": {"title": "The effect of n vs. iso Isomerization on the thermophysical properties of aromatic and non-aromatic ionic liquids", "full": "Rodrigues, A. S. M. C.; Almeida, H. F. D.; Freire, M. G.; Lopes-da-Silva, J. A.; Coutinho, J. A. P.; Santos, L. M. N. B. F. (2016) Fluid Phase Equilib. 423, 190-202."}, "phases": ["Crystal", "Liquid"]}