{"constr": ["Pressure of 1 atm"], "ref": {"title": "Dicationic imidazolium based ionic liquids: Synthesis and properties", "full": "Khan, A. S.; Man, Z.; Arvina, A.; Bustam, M. A.; Nasrullah, A.; Ullah, Z.; Sarwono, A.; Muhammad, N. (2017) J. Mol. Liq. 227, 98-105."}, "phases": ["Crystal", "Liquid"], "components": [{"idout": "ABaxjg", "mw": "410.50", "name": "3,3'-(butane-1,4-diyl)bis(1-methyl-1H-imidazol-3-ium) methanesulfonate", "formula": "C<SUB>14</SUB>H<SUB>26</SUB>N<SUB>4</SUB>O<SUB>6</SUB>S<SUB>2</SUB>", "sample": [["Source:", "synthesized by the authors"], ["Purification:", "chemical analysis"], ["Purity:", "99 mass %(dried by vacuum heating;solvent extraction)"]]}], "title": "Phase transition properties: Normal melting temperature", "dhead": [["Normal melting temperature, K"]], "solvent": null, "data": [[["226.36", "0"]]], "footer": "", "expmeth": "DSC/DTA"}