{"components": [{"sample": [["Source:", "commercial source"], ["Purification:", "stated by supplier"], ["Purity:", "95 % (basis not specified)"], ["Purity analysis:", "dried by vacuum heating"]], "formula": "F<SUB>2</SUB>KNO<SUB>4</SUB>S<SUB>2</SUB>", "name": "potassium bis(fluorosulfonyl)amide", "mw": "219.22", "idout": "AAqIKq"}], "title": "Phase transition properties: Normal melting temperature", "dhead": [["Normal melting temperature, K"]], "data": [[["377.15", "0.5"]]], "solvent": null, "footer": "", "expmeth": "DSC/DTA", "ref": {"title": "Potassium Single Cation Ionic Liquid Electrolyte for Potassium-Ion Batteries", "full": "Yamamoto, H.; Chen, C.-Y.; Kubota, K.; Matsumoto, K.; Hagiwara, R. (2020) J. Phys. Chem. B 124(29), 6341-6347."}, "constr": ["Pressure of 1 atm"], "phases": ["Crystal", "Liquid"]}