{"constr": ["Pressure of 1 atm"], "ref": {"title": "Synthesis and characterization of potentially polymerizable amine-derived ionic liquids bearing 4-vinylbenzyl group", "full": "Zajac, A.; Szpecht, A.; Zielinski, D.; Rola, K.; Hoppe, J.; Komorowska, K.; Smiglak, M. (2019) J. Mol. Liq. 283, 427-439."}, "phases": ["Crystal", "Liquid"], "components": [{"sample": [["Source:", "synthesized by the authors"], ["Purification:", "ion chromatography;Karl Fischer titration"], ["Purity:", "99 mass %;0.03 water mass %(dried by vacuum heating;solvent extraction)"]], "formula": "C<SUB>16</SUB>H<SUB>20</SUB>F<SUB>6</SUB>N<SUB>2</SUB>O<SUB>5</SUB>S<SUB>2</SUB>", "name": "4-methyl-4-(4'-vinylbenzyl)morpholinium bis(trifluoromethanesulfonyl)amide", "mw": "498.46", "idout": "ABrsgp"}], "title": "Phase transition properties: Normal melting temperature", "dhead": [["Normal melting temperature, K"]], "data": [[["349.4", "1.1"]]], "solvent": null, "footer": "", "expmeth": "DSC/DTA"}