{"title": "Phase transition properties: Normal melting temperature", "components": [{"idout": "ABKxdb", "mw": "327.36", "formula": "C<SUB>13</SUB>H<SUB>20</SUB>F<SUB>3</SUB>NO<SUB>3</SUB>S", "name": "1-hexyl-3-methylpyridinium trifluoromethanesulfonate", "sample": [["Source:", "synthesized by the authors"], ["Purification:", "NMR (proton);Karl Fischer titration"], ["Purity:", "96.6 mass %;0.031 water mass %(dried by vacuum heating)"]]}], "dhead": [["Normal melting temperature, K"]], "footer": "", "data": [[["337.76", "0.39"]]], "solvent": null, "expmeth": "DSC/DTA", "constr": ["Pressure of 1 atm"], "ref": {"full": "Domanska, U.; Krolikowski, M.; Pobudkowska, A.; Bochenska, P. (2012) J. Chem. Thermodyn. 55, 225-233.", "title": "Solubility of ionic liquids in water and octan-1-ol and octan-1-ol/water, or 2-phenylethanol/water partition coefficients"}, "phases": ["Crystal", "Liquid"]}