{"constr": ["Pressure of 1 atm"], "ref": {"full": "Liu, J.; Yang, W.; Li, Z.; Ren, F.; Hao, H. (2020) J. Mol. Liq. 307, 112994.", "title": "Experimental investigation of thermo-physical properties of geminal dicationic ionic compounds for latent thermal energy storage"}, "phases": ["Crystal", "Liquid"], "components": [{"idout": "ABVFhr", "mw": "380.13", "formula": "C<SUB>12</SUB>H<SUB>20</SUB>Br<SUB>2</SUB>N<SUB>4</SUB>", "name": "1,1'-(butane-1,4-diyl)bis(3-methyl-1H-imidazol-3-ium) dibromide", "sample": [["Source:", "synthesized by the authors"], ["Purification:", "estimated by the compiler;Karl Fischer titration"], ["Purity:", "98 mass %;0.0356 water mass %(dried by vacuum heating;solvent extraction)"]]}], "title": "Phase transition properties: Normal melting temperature", "dhead": [["Normal melting temperature, K"]], "data": [[["408.6", "1.1"]]], "solvent": null, "footer": "", "expmeth": "DSC/DTA"}