{"constr": ["Pressure of 1 atm"], "ref": {"full": "Krolikowski, Marek; Krolikowska, Marta; Lipinska, Aleksandra (2018) J. Chem. Thermodyn. 122, 142-153.", "title": "Phase equilibria study on bromide-based ionic liquids with glycols and sulfolane. Experimental data and correlation"}, "phases": ["Crystal", "Liquid"], "title": "Phase transition properties: Normal melting temperature", "components": [{"sample": [["Source:", "synthesized by the authors"], ["Initial purification:", "NMR (proton)"], ["Initial purity:", "95 mass %"], ["Final purification:", "Karl Fischer titration"], ["Final purity:", "0.0900 water mass %(dried by vacuum heating)"]], "name": "4-butyl-4-methylmorpholinium bromide", "formula": "C<SUB>9</SUB>H<SUB>20</SUB>BrNO", "idout": "AAtpNd", "mw": "238.17"}], "dhead": [["Normal melting temperature, K"]], "footer": "", "data": [[["484.2", "1.1"]]], "solvent": null, "expmeth": "DSC/DTA"}