{"components": [{"formula": "C<SUB>11</SUB>H<SUB>19</SUB>F<SUB>3</SUB>N<SUB>2</SUB>O<SUB>3</SUB>S", "name": "1-hexyl-3-methylimidazolium trifluoromethanesulfonate", "idout": "ABIrWy", "mw": "316.34", "sample": [["Source:", "commercial source"], ["Initial purification:", "stated by supplier"], ["Initial purity:", "99 mass %"], ["Final purification:", "Karl Fischer titration;not known"], ["Final purity:", "0.0105 water mass %;0.006 halide impurity mass %"]]}], "title": "Phase transition properties: Normal melting temperature", "dhead": [["Normal melting temperature, K"]], "data": [[["298", "3"]]], "solvent": null, "footer": "", "expmeth": "Heating/Cooling curves", "constr": ["Pressure of 1 atm"], "ref": {"title": "Thermal Analysis and Heat Capacities of 1-Alkyl-3-methylimidazolium Ionic Liquids with NTf2-, TFO-, and DCA- Anions", "full": "Gomez, E.; Calvar, N.; Dominguez, A.; Macedo, E. A. (2013) Ind. Eng. Chem. Res. 52, 2103-2110."}, "phases": ["Crystal", "Liquid"]}