{"title": "Phase transition properties: Normal melting temperature", "components": [{"mw": "197.97", "idout": "AAmDom", "name": "1-ethyl-3-methylimidazolium tetrafluoroborate", "formula": "C<SUB>6</SUB>H<SUB>11</SUB>BF<SUB>4</SUB>N<SUB>2</SUB>", "sample": [["Source:", "commercial source"]]}], "dhead": [["Normal melting temperature, K"]], "footer": "", "data": [[["288.1", "1"]]], "solvent": null, "expmeth": "derived from hydrophobicity", "constr": ["Pressure of 1 atm"], "ref": {"full": "Morita, T.; Nitta, A.; Nishikawa, K.; Westh, P.; Koga, Y. (2014) J. Mol. Liq. 198, 211-214.", "title": "Characterization of BF4- in terms of its effect on water by the 1-propanol probing methodology"}, "phases": ["Crystal", "Liquid"]}