{"phases": ["Crystal", "Liquid"], "constr": ["Pressure of 1 atm"], "ref": {"title": "Fluorination effects on the thermodynamic, thermophysical and surface properties of ionic liquids", "full": "Vieira, N. S. M.; Luis, A.; Reis, P. M.; Carvalho, P. J.; Lopes-da-Silva, J. A.; Esperanca, J. M. S. S.; Araujo, J. M. M.; Rebelo, L. P. N.; Freire, M. G.; Pereiro, A. B. (2016) J. Chem. Thermodyn. 97, 354-361."}, "expmeth": "DSC/DTA", "solvent": null, "data": [[["275", "4"]]], "footer": "", "dhead": [["Normal melting temperature, K"]], "components": [{"name": "1-ethyl-3-methylpyridinium perfluoropentanoate", "formula": "C<SUB>13</SUB>H<SUB>12</SUB>F<SUB>9</SUB>NO<SUB>2</SUB>", "mw": "385.23", "idout": "ABWEzw", "sample": [["Source:", "synthesized by the authors"], ["Purification:", "NMR (proton);Karl Fischer titration;titration"], ["Purity:", "99 mol %;0.01 water mass %;0.01 halide impurity mol %(dried by vacuum heating)"]]}], "title": "Phase transition properties: Normal melting temperature"}