{"dhead": [["Normal melting temperature, K"]], "components": [{"mw": "447.41", "idout": "ABiCtA", "name": "1-hexyl-3-methylimidazolium bis[(trifluoromethyl)sulfonyl]imide", "formula": "C<SUB>12</SUB>H<SUB>19</SUB>F<SUB>6</SUB>N<SUB>3</SUB>O<SUB>4</SUB>S<SUB>2</SUB>", "sample": [["Source:", "commercial source"], ["Initial purification:", "stated by supplier"], ["Initial purity:", "99 mass %"], ["Final purification:", "Karl Fischer titration;not known"], ["Final purity:", "0.005 water mass %;0.01 halide impurity mass %(dried by vacuum heating)"]]}], "title": "Phase transition properties: Normal melting temperature", "expmeth": "Heating/Cooling curves", "data": [[["269", "3"]]], "solvent": null, "footer": "", "ref": {"full": "Gomez, E.; Calvar, N.; Dominguez, A.; Macedo, E. A. (2013) Ind. Eng. Chem. Res. 52, 2103-2110.", "title": "Thermal Analysis and Heat Capacities of 1-Alkyl-3-methylimidazolium Ionic Liquids with NTf2-, TFO-, and DCA- Anions"}, "constr": ["Pressure of 1 atm"], "phases": ["Crystal", "Liquid"]}