{"components": [{"name": "1-butyl-1-methylpyrrolidinium tricyanomethanide", "formula": "C<SUB>13</SUB>H<SUB>20</SUB>N<SUB>4</SUB>", "idout": "AAsjdp", "mw": "232.33", "sample": [["Source:", "synthesized by the authors"], ["Initial purification:", "stated by supplier"], ["Initial purity:", "98 mass %"], ["Final purification:", "Karl Fischer titration"], ["Final purity:", "0.06539 water mass %"]]}], "title": "Phase transition properties: Normal melting temperature", "dhead": [["Normal melting temperature, K"]], "data": [[["264.4", "0.4"]]], "solvent": null, "footer": "", "expmeth": "DSC/DTA", "constr": ["Pressure of 1 atm"], "ref": {"full": "Domanska, U.; Okuniewska, P.; Markowska, A. (2016) Fluid Phase Equilib. 424, 68-78.", "title": "Phase equilibrium in binary systems of ionic liquids, or deep eutectic solvents with 2-phenylethanol (PEA), or water"}, "phases": ["Crystal", "Liquid"]}