{"title": "Phase transition properties: Normal melting temperature", "components": [{"mw": "146.62", "idout": "AAcKZa", "formula": "C<SUB>6</SUB>H<SUB>11</SUB>ClN<SUB>2</SUB>", "name": "1-ethyl-3-methylimidazolium chloride", "sample": [["Source:", "commercial source"], ["Initial purification:", "stated by supplier"], ["Initial purity:", "99 mass %"], ["Final purification:", "Karl Fischer titration"], ["Final purity:", "0.02987 water mass %"]]}], "dhead": [["Normal melting temperature, K"]], "footer": "", "data": [[["360", "1"]]], "solvent": null, "expmeth": "Visual observation", "constr": ["Pressure of 1 atm"], "ref": {"title": "Liquid-solid-liquid phase transition hysteresis loops in the ionic conductivity of ten imidazolium-based ionic liquids", "full": "Vila, J.; Fernandez-Castro, B.; Rilo, E.; Carrete, J.; Dominguez-Perez, M.; Rodriguez, J. R.; Garcia, M.; Varela, L. M.; Cabeza, O. (2012) Fluid Phase Equilib. 320, 1-10."}, "phases": ["Crystal", "Liquid"]}