{"constr": ["Pressure of 1 atm"], "ref": {"full": "Walst, K. J.; Yunis, R.; Bayley, P. M.; MacFarlane, D. R.; Ward, C. J.; Wang, R.; Curnow, O. J. (2015) RSC Adv. 5(49), 39565-39579.", "title": "Synthesis and physical properties of tris(dialkylamino)cyclopropenium bistriflamide ionic liquids"}, "phases": ["Crystal", "Liquid"], "components": [{"sample": [["Source:", "synthesized by the authors"], ["Purification:", "estimated by the compiler"], ["Purity:", "98 mass %(dried by vacuum heating;solvent extraction)"]], "name": "tris(diethylamino)cyclopropenium bis(trifluoromethansulfonyl)amide", "formula": "C<SUB>17</SUB>H<SUB>30</SUB>F<SUB>6</SUB>N<SUB>4</SUB>O<SUB>4</SUB>S<SUB>2</SUB>", "idout": "AByVQP", "mw": "532.56"}], "title": "Phase transition properties: Normal melting temperature", "dhead": [["Normal melting temperature, K"]], "data": [[["291.1", "2"]]], "solvent": null, "footer": "", "expmeth": "DSC/DTA"}