{"constr": ["Pressure of 1 atm"], "ref": {"title": "The influence of bromide-based ionic liquids on solubility of {LiBr (1) + water (2)} system. Experimental (solid + liquid) phase equilibrium data. Part 2", "full": "Krolikowska, M.; Zawadzki, M.; Skonieczny, M. (2018) J. Mol. Liq. 265, 316-326."}, "phases": ["Crystal", "Liquid"], "dhead": [["Normal melting temperature, K"]], "components": [{"mw": "204.07", "idout": "AAnMlv", "name": "1-(2-hydroxyethyl)pyridinium bromide", "formula": "C<SUB>7</SUB>H<SUB>10</SUB>BrNO", "sample": [["Source:", "synthesized by the authors"], ["Purification:", "NMR (proton)"], ["Purity:", "95 mol %(crystallization from solution;dried by vacuum heating)"]]}], "title": "Phase transition properties: Normal melting temperature", "expmeth": "DSC/DTA", "data": [[["379", "5"]]], "solvent": null, "footer": ""}