{"ref": {"full": "Xue, H.; Arritt, S. W.; Twamley, B.; Shreeve, J. M. (2004) Inorg. Chem. 43, 7972-7977.", "title": "Energetic Salts of N-Aminoazoles"}, "constr": ["Pressure of 1 atm"], "phases": ["Crystal", "Liquid"], "components": [{"sample": [["Source:", "synthesized by the authors"], ["Purification:", "estimated by the compiler"], ["Purity:", "97 % (basis not specified)(dried by vacuum heating)"]], "mw": "213.58", "idout": "AApDAZ", "name": "4-amino-1,5-dimethyl-1H-tetrazol-4-ium perchlorate", "formula": "C<SUB>3</SUB>H<SUB>8</SUB>ClN<SUB>5</SUB>O<SUB>4</SUB>"}], "title": "Phase transition properties: Normal melting temperature", "dhead": [["Normal melting temperature, K"]], "data": [[["324.1", "1"]]], "solvent": null, "footer": "", "expmeth": "DSC/DTA"}