{"title": "Phase transition properties: Normal melting temperature", "components": [{"name": "1-methylimidazolium chloride", "formula": "C<SUB>4</SUB>H<SUB>7</SUB>ClN<SUB>2</SUB>", "idout": "AAWpNY", "mw": "118.56", "sample": [["Source:", "synthesized by the authors"], ["Initial purification:", "estimated by the compiler"], ["Initial purity:", "98 mass %"], ["Final purification:", "Karl Fischer titration"], ["Final purity:", "0.1036 water mass %(dried by vacuum heating)"]]}], "dhead": [["Normal melting temperature, K"]], "footer": "", "data": [[["347.3", "2"]]], "solvent": null, "expmeth": "DSC/DTA", "constr": ["Pressure of 1 atm"], "ref": {"title": "Effect of ionic liquid 1-methylimidazolium chloride on the vapour liquid equilibrium of water, methanol, ethanol, and {water + ethanol} mixture", "full": "Shen, C.; Li, X.-m.; Lu, Y.-Z.; Li, C.-X. (2011) J. Chem. Thermodyn. 43(11), 1748-1753."}, "phases": ["Crystal", "Liquid"]}