{"ref": {"title": "Phase Behavior of Ionic Liquid-LiX Mixtures: Pyrrolidinium Cations and TFSI- Anions - Linking Structure to Transport Properties", "full": "Zhou, Q.; Boyle, P. D.; Malpezzi, L.; Mele, A.; Shin, J.-H.; Passerini, S.; Henderson, W. A. (2011) Chem. Mater. 23(19), 4331-4337."}, "constr": ["Pressure of 1 atm"], "phases": ["Crystal", "Liquid"], "components": [{"sample": [["Source:", "commercial source"], ["Purification:", "estimation"], ["Purity:", "99 mass %"]], "mw": "287.08", "idout": "ABDKGa", "name": "lithium bis((trifluoromethyl)sulfonyl)amide", "formula": "C<SUB>2</SUB>F<SUB>6</SUB>LiNO<SUB>4</SUB>S<SUB>2</SUB>"}], "title": "Phase transition properties: Normal melting temperature", "dhead": [["Normal melting temperature, K"]], "data": [[["509", "10"]]], "solvent": null, "footer": "", "expmeth": "DSC/DTA"}