{"components": [{"formula": "C<SUB>8</SUB>H<SUB>18</SUB>F<SUB>6</SUB>NOP", "name": "1-(2-methoxyethyl)-1-methylpyrrolidinium hexafluorophosphate", "idout": "ABDgTe", "mw": "289.20", "sample": [["Source:", "synthesized by the authors"], ["Purification:", "Karl Fischer titration;estimated by the compiler"], ["Purity:", "0.0069 water mass %;98 mass %(dried by vacuum heating;solvent extraction;impurity adsorption)"]]}], "title": "Phase transition properties: Normal melting temperature", "dhead": [["Normal melting temperature, K"]], "data": [[["307", "2"]]], "solvent": null, "footer": "", "expmeth": "DSC/DTA", "ref": {"title": "Femtosecond Raman-Induced Kerr Effect Study of Temperature-Dependent Intermolecular Dynamics in Pyrrolidinium-Based Ionic Liquids: Effects of Anion Species", "full": "Kakinuma, S.; Shirota, H. (2019) J. Phys. Chem. B 123(6), 1307-1323."}, "constr": ["Pressure of 1 atm"], "phases": ["Crystal", "Liquid"]}