{"ref": {"title": "Comparative Study on Physicochemical Properties of Protic Ionic Liquids Based on Allylammonium and Propylammonium Cations", "full": "Yasuda, T.; Kinoshita, H.; Miran, M. S.; Tsuzuki, S.; Watanabe, M. (2013) J. Chem. Eng. Data 58(10), 2724-2732."}, "constr": ["Pressure of 1 atm"], "phases": ["Crystal", "Liquid"], "title": "Phase transition properties: Normal melting temperature", "components": [{"name": "N,N-diethylprop-2-en-1-aminium trifluoromethanesulfonate", "formula": "C<SUB>8</SUB>H<SUB>16</SUB>F<SUB>3</SUB>NO<SUB>3</SUB>S", "mw": "263.28", "idout": "AAygCq", "sample": [["Source:", "synthesized by the authors"], ["Purification:", "Karl Fischer titration"], ["Purity:", "0.01 water mass %(dried by vacuum heating)"]]}], "dhead": [["Normal melting temperature, K"]], "footer": "", "solvent": null, "data": [[["259.1", "1"]]], "expmeth": "DSC/DTA"}