{"phases": ["Crystal", "Liquid"], "ref": {"title": "Stability of Ion Pairs of Bis(trifluoromethanesulfonyl)amide-Based Ionic Liquids in Dichloromethane", "full": "Katsuta, S.; Shiozawa, Y.; Imai, K.; Kudo, Y.; Takeda, Y. (2010) J. Chem. Eng. Data 55(4), 1588-1593."}, "constr": ["Pressure of 1 atm"], "expmeth": "Visual observation", "data": [[["285.1", "2"]]], "solvent": null, "footer": "", "dhead": [["Normal melting temperature, K"]], "components": [{"name": "1-methyl-1-propylpiperidinium bis(trifluoromethylsulfonyl)imide", "formula": "C<SUB>11</SUB>H<SUB>20</SUB>F<SUB>6</SUB>N<SUB>2</SUB>O<SUB>4</SUB>S<SUB>2</SUB>", "mw": "422.40", "idout": "ABdMCc", "sample": [["Source:", "commercial source"], ["Purification:", "estimated by the compiler;Karl Fischer titration"], ["Purity:", "97 mol %;0.001 water mass %;0.003 halide impurity mass %(dried by vacuum heating;solvent extraction)"]]}], "title": "Phase transition properties: Normal melting temperature"}