{"components": [{"idout": "ABQUdR", "mw": "355.61", "name": "hexadecanoic acid cyclohexanamine salt (1:1)", "formula": "C<SUB>22</SUB>H<SUB>45</SUB>NO<SUB>2</SUB>", "sample": [["Source:", "synthesized by the authors"], ["Purity analysis:", "crystallization from solution"]]}], "title": "Phase transition properties: Normal melting temperature", "dhead": [["Normal melting temperature, K"]], "data": [[["363.75", "0.5"]]], "solvent": null, "footer": "", "expmeth": "Visual observation", "ref": {"full": "Mod, R. R.; Harris, J. A.; Skau, E. L. (1967) J. Chem. Eng. Data 12(1), 108-110.", "title": "Solubilities of the Cyclohexylamine Salts of the Odd and Even Normal CIO to CZO Fatty Acids in Benzene, Methanol, and Acetone"}, "constr": ["Pressure of 1 atm"], "phases": ["Crystal", "Liquid"]}