{"title": "Phase transition properties: Normal melting temperature", "components": [{"sample": [["Source:", "commercial source"], ["Initial purification:", "stated by supplier"], ["Initial purity:", "99 mass %"], ["Final purification:", "Karl Fischer titration"], ["Final purity:", "0.01 halide impurity mass %;0.015 water mass %"]], "formula": "C<SUB>9</SUB>H<SUB>16</SUB>F<SUB>6</SUB>N<SUB>2</SUB>O<SUB>4</SUB>S<SUB>2</SUB>", "name": "1-ethyl-1-methylpyrrolidinium bis[(trifluoromethyl)sulfonyl]imide", "mw": "394.35", "idout": "ABXrWT"}], "dhead": [["Normal melting temperature, K"]], "footer": "", "data": [[["362", "2"]]], "solvent": null, "expmeth": "DSC/DTA", "constr": ["Pressure of 1 atm"], "ref": {"full": "Gomez, E.; Calvar, N.; Dominguez, A.; Macedo, E. A. (2018) Fluid Phase Equilib. 470, 51-59.", "title": "Thermal behavior and heat capacities of pyrrolidinium-based ionic liquids by DSC"}, "phases": ["Crystal 1", "Liquid"]}