{"title": "Phase transition properties: Normal melting temperature", "components": [{"sample": [["Source:", "synthesized by the authors"], ["Purity analysis:", "chemical reagent treatment;crystallization from solution"]], "name": "lead(2+) nonanoate", "formula": "C<SUB>18</SUB>H<SUB>34</SUB>O<SUB>4</SUB>Pb", "mw": "521.67", "idout": "ABwQUQ"}], "dhead": [["Normal melting temperature, K"]], "footer": "", "solvent": null, "data": [[["384.8", "0.2"]]], "expmeth": false, "ref": {"title": "The properties of molten carboxylates: Part 7. Odd-even variations in melting and mesophase formation in the lead(II) carboxylates", "full": "Adeosun, S. O.; Sime, S. J. (1978) Thermochim. Acta 27(1-3), 319-327."}, "constr": ["Pressure of 1 atm"], "phases": ["Crystal 1", "Liquid"]}