{"components": [{"sample": [["Source:", "commercial source"], ["Initial purification:", "stated by supplier"], ["Initial purity:", "99.0 % (basis not specified)"], ["Final purification:", "chemical analysis"], ["Final purity:", "99.5 % (basis not specified)"]], "mw": "201.69", "idout": "AAmoSi", "formula": "C<SUB>10</SUB>H<SUB>16</SUB>ClNO", "name": "ephedrine hydrochloride"}], "title": "Phase transition properties: Normal melting temperature", "dhead": [["Normal melting temperature, K"]], "data": [[["489", "3"]]], "solvent": null, "footer": "", "expmeth": "Visual observation", "ref": {"full": "Yang, W.-w.; Di, Y.-y.; Li, J.; Kong, Y.-x. (2010) Chem. Res. Chin. Univ. 26(2), 304-308.", "title": "Crystal Structure and Thermodynamic Study of Ephedrine Hydrochloride C10H16NOCl(s)"}, "constr": ["Pressure of 1 atm"], "phases": ["Crystal", "Liquid"]}