{"constr": ["Pressure of 1 atm"], "ref": {"full": "Martins, Monia A.R.; Sosa, Filipe H.B.; Kilpelaeinen, Ilkka; Coutinho, Joao A.P. (2022) Fluid Phase Equilib. 556, 113414.", "title": "Physico-chemical characterization of aqueous solutions of superbase ionic liquids with cellulose dissolution capability"}, "phases": ["Crystal", "Liquid"], "components": [{"sample": [["Source:", "synthesized by the authors"], ["Purification:", "NMR (proton)"], ["Purity:", "97 mol %"]], "idout": "AApASb", "mw": "213.28", "formula": "C<SUB>10</SUB>H<SUB>19</SUB>N<SUB>3</SUB>O<SUB>2</SUB>", "name": "1-methyl-1,2,3,4,5,6,7,8-octahydropyrimido[1,2-a]pyrimidin-5-ium acetate"}], "title": "Phase transition properties: Normal melting temperature", "dhead": [["Normal melting temperature, K"]], "solvent": null, "data": [[["349", "0.4"]]], "footer": "", "expmeth": "DSC/DTA"}