{"title": "Phase transition properties: Normal melting temperature", "components": [{"sample": [["Source:", "synthesized by the authors"], ["Initial purification:", "NMR (proton)"], ["Initial purity:", "98 mass %"], ["Final purification:", "Karl Fischer titration"], ["Final purity:", "0.3 halide impurity mass %;0.028 water mass %"]], "mw": "349.49", "idout": "ABPKxB", "formula": "C<SUB>19</SUB>H<SUB>27</SUB>NO<SUB>3</SUB>S", "name": "1-hexyl-3-methylpyridinium 4-methylbenzenesulfonate"}], "dhead": [["Normal melting temperature, K"]], "footer": "", "data": [[["329.3", "0.4"]]], "solvent": null, "expmeth": "Visual observation", "ref": {"title": "Phase equilibrium study of the binary systems (N-hexyl-3-methylpyridinium tosylate ionic liquid + water, or organic solvent)", "full": "Domanska, U.; Krolikowski, M. (2011) J. Chem. Thermodyn. 43(10), 1488-1494."}, "constr": ["Pressure of 1 atm"], "phases": ["Crystal", "Liquid"]}