{"dhead": [["Normal melting temperature, K"]], "components": [{"formula": "C<SUB>7</SUB>H<SUB>11</SUB>ClN<SUB>2</SUB>", "name": "1-allyl-3-methylimidazolium chloride", "idout": "AAeaVk", "mw": "158.63", "sample": [["Purity analysis:", "unspecified"]]}], "title": "Phase transition properties: Normal melting temperature", "expmeth": "unknown", "data": [[["328.1", "6"]]], "solvent": null, "footer": "", "ref": {"title": "THERMOGRAPHIC MATERIALS CONTAINING IONIC LIQUIDS", "full": "Sakizadeh, K.; Olson, L. P.; Cowdery-Corvan, P. J.; Ishida, T.; Whitcomb, D. R. (2007) U.S. Patent US7163786B1, 2007, Jan. 16."}, "constr": ["Pressure of 1 atm"], "phases": ["Crystal", "Liquid"]}