{"title": "Phase transition properties: Normal melting temperature", "components": [{"name": "4-amino-1-methyl-4H-1,2,4-triazol-1-ium perchlorate", "formula": "C<SUB>3</SUB>H<SUB>7</SUB>ClN<SUB>4</SUB>O<SUB>4</SUB>", "idout": "AAmJpv", "mw": "198.56", "sample": [["Source:", "synthesized by the authors"], ["Purification:", "estimated by the compiler"], ["Purity:", "97 % (basis not specified)"]]}], "dhead": [["Normal melting temperature, K"]], "footer": "", "data": [[["359.1", "1"]]], "solvent": null, "expmeth": "DSC/DTA", "ref": {"title": "Energetic Salts of N-Aminoazoles", "full": "Xue, H.; Arritt, S. W.; Twamley, B.; Shreeve, J. M. (2004) Inorg. Chem. 43, 7972-7977."}, "constr": ["Pressure of 1 atm"], "phases": ["Crystal", "Liquid"]}