{"constr": ["Pressure of 1 atm"], "ref": {"title": "Synthesis, characterization and in vitro antiproliferative evaluation of ionic liquids based on alkyl-substituted thiabendazolium", "full": "El Bourakadi, K.; Merghoub, N.; Hicham, G.; Mekhzoum, M. E. M.; Essassi, E. M.; Qaiss, A. e. k.; Bouhfid, R. (2019) J. Mol. Liq. 282, 63-69."}, "phases": ["Crystal", "Liquid"], "components": [{"idout": "ABnrum", "mw": "477.56", "formula": "C<SUB>20</SUB>H<SUB>26</SUB>F<SUB>3</SUB>N<SUB>3</SUB>O<SUB>3</SUB>S<SUB>2</SUB>", "name": "3-methyl-1-octyl-2-(thiazol-4-yl)benzimidazolium trifluoromethanesulfonate", "sample": [["Source:", "synthesized by the authors"], ["Purification:", "estimated by the compiler"], ["Purity:", "98 mass %(crystallization from solution;dried by vacuum heating)"]]}], "title": "Phase transition properties: Normal melting temperature", "dhead": [["Normal melting temperature, K"]], "data": [[["355.1", "2"]]], "solvent": null, "footer": "", "expmeth": "Visual observation"}