{"ref": {"title": "Phase equilibria of mixtures of mutually immiscible ionic liquids", "full": "Arce, A.; Earle, M. J.; Katdare, S. P.; Rodriguez, H.; Seddon, K. R. (2007) Fluid Phase Equilib. 261(1-2), 427-433."}, "constr": ["Pressure of 1 atm"], "phases": ["Crystal", "Liquid"], "components": [{"mw": "764.01", "idout": "ACqwtJ", "formula": "C<SUB>34</SUB>H<SUB>68</SUB>F<SUB>6</SUB>NO<SUB>4</SUB>PS<SUB>2</SUB>", "name": "trihexyl(tetradecyl)phosphonium bis[(trifluoromethyl)sulfonyl]imide", "sample": [["Source:", "synthesized by the authors"], ["Purification:", "Karl Fischer titration"], ["Purity:", "0.04 water mass %"]]}], "title": "Phase transition properties: Normal melting temperature", "dhead": [["Normal melting temperature, K"]], "data": [[["306.1", "1"]]], "solvent": null, "footer": "", "expmeth": "DSC/DTA"}