{"phases": ["Crystal", "Liquid"], "ref": {"full": "Van Oort, M. J. M.; White, M. A. (1989) Thermochim. Acta 139, 205-217.", "title": "Solid-solid phase transitions in phenalkylammonium salts"}, "constr": ["Pressure of 1 atm"], "expmeth": "DSC/DTA", "data": [[["345.1", "2"]]], "solvent": null, "footer": "", "dhead": [["Normal melting temperature, K"]], "components": [{"name": "8-phenyloctylammonium nitrate", "formula": "C<SUB>14</SUB>H<SUB>24</SUB>N<SUB>2</SUB>O<SUB>3</SUB>", "mw": "268.36", "idout": "AAzfdr", "sample": [["Source:", "synthesized by the authors"]]}], "title": "Phase transition properties: Normal melting temperature"}