{"constr": ["Pressure of 1 atm"], "ref": {"title": "Phenyl/alkyl-substituted-3,5-dimethylpyrazolium ionic liquids", "full": "Ozdemir, M. C.; Ozgun, B. (2014) J. Mol. Liq. 200, 129-135."}, "phases": ["Crystal", "Liquid"], "title": "Phase transition properties: Normal melting temperature", "components": [{"sample": [["Source:", "synthesized by the authors"]], "mw": "310.41", "idout": "ABHkDp", "formula": "C<SUB>15</SUB>H<SUB>22</SUB>N<SUB>2</SUB>O<SUB>3</SUB>S", "name": "1-phenyl-3,5-dimethyl-2-propylpyrazolium methanesulfonate"}], "dhead": [["Normal melting temperature, K"]], "footer": "", "data": [[["365.6", "1.1"]]], "solvent": null, "expmeth": "DSC/DTA"}