{"ref": {"full": "Krolikowska, M. (2014) Fluid Phase Equilib. 361, 273-281.", "title": "(Solid + liquid) and (liquid + liquid) phase equilibria of (IL + water) binary systems. The influence of the ionic liquid structure on mutual solubility"}, "constr": ["Pressure of 1 atm"], "phases": ["Crystal", "Liquid"], "title": "Phase transition properties: Normal melting temperature", "components": [{"name": "1-butyl-1-methylpyrrolidinium tetracyanoborate", "formula": "C<SUB>13</SUB>H<SUB>20</SUB>BN<SUB>5</SUB>", "idout": "AAxXko", "mw": "257.15", "sample": [["Source:", "commercial source"], ["Initial purification:", "stated by supplier"], ["Initial purity:", "98 mass %"], ["Final purification:", "Karl Fischer titration"], ["Final purity:", "99.96 mass %(dried by vacuum heating)"]]}], "dhead": [["Normal melting temperature, K"]], "footer": "", "data": [[["292.85", "0.17"]]], "solvent": null, "expmeth": "Visual observation"}