{"title": "Phase transition properties: Normal melting temperature", "components": [{"name": "1-butyl-3-methylimidazolium chloride", "formula": "C<SUB>8</SUB>H<SUB>15</SUB>ClN<SUB>2</SUB>", "idout": "AAherF", "mw": "174.67", "sample": [["Source:", "synthesized by the authors"], ["Purification:", "estimated by the compiler"], ["Purity:", "97 mass %"]]}], "dhead": [["Normal melting temperature, K"]], "footer": "", "data": [[["314.1", "1"]]], "solvent": null, "expmeth": "DSC/DTA", "ref": {"title": "Crystal polymorphism in 1-butyl-3-methylimidazolium halides: supporting ionic liquid formation by inhibition of crystallization ", "full": "Holbrey, J. D.; Reichert, W. M.; Nieuwenhuyzen, M.; Johnston, S.; Seddon, K. R.; Rogers, R. D. (2003) Chem. Commun. 1636-1637."}, "constr": ["Pressure of 1 atm"], "phases": ["Metastable crystal", "Liquid"]}