{"expmeth": "Visual observation", "data": [[["474.6", "7"]]], "solvent": null, "footer": "", "dhead": [["Normal melting temperature, K"]], "components": [{"mw": "288.38", "idout": "ABDXmt", "formula": "C<SUB>12</SUB>H<SUB>25</SUB>NaO<SUB>4</SUB>S", "name": "sodium dodecyl sulfate", "sample": [["Source:", "commercial source"], ["Purification:", "NMR (proton)"], ["Purity:", "98 mass %(crystallization from solution;solvent extraction)"]]}], "title": "Phase transition properties: Normal melting temperature", "phases": ["Crystal", "Liquid"], "constr": ["Pressure of 1 atm"], "ref": {"full": "Li, S.-J.; Lai, L.; Mei, P.; Li, Y.; Cheng, L.; Ren, Z.-H.; Liu, Y. (2018) J. Mol. Liq. 254, 248-254.", "title": "Equilibrium and dynamic surface properties of cationic/anionic surfactant mixtures based on bisquaternary ammonium salt"}}