{"dhead": [["Normal melting temperature, K"]], "components": [{"name": "triethylhexylammonium 1,2,3-triazolide", "formula": "C<SUB>14</SUB>H<SUB>30</SUB>N<SUB>4</SUB>", "idout": "AAwwky", "mw": "254.42", "sample": [["Source:", "synthesized by the authors"], ["Purification:", "NMR (proton)"], ["Purity:", "97 % (basis not specified)"]]}], "title": "Phase transition properties: Normal melting temperature", "expmeth": "DSC/DTA", "solvent": null, "data": [[["333", "2"]]], "footer": "", "constr": ["Pressure of 1 atm"], "ref": {"title": "Phase transitions, decomposition temperatures, viscosities and densities of phosphonium, ammonium and imidazolium ionic liquids with aprotic heterocyclic anions", "full": "Fillion, J.; Xia, H.; DeSilva, M. A.; Quiroz-Guzman, M.; Brennecke, J. (2016) J. Chem. Eng. Data 61(8), 2897-2914."}, "phases": ["Crystal", "Liquid"]}