{"constr": ["Pressure of 1 atm"], "ref": {"full": "Walst, K. J.; Yunis, R.; Bayley, P. M.; MacFarlane, D. R.; Ward, C. J.; Wang, R.; Curnow, O. J. (2015) RSC Adv. 5(49), 39565-39579.", "title": "Synthesis and physical properties of tris(dialkylamino)cyclopropenium bistriflamide ionic liquids"}, "phases": ["Crystal", "Liquid"], "components": [{"sample": [["Source:", "synthesized by the authors"], ["Purification:", "estimated by the compiler;Karl Fischer titration;ion-selective electrode"], ["Purity:", "98 mass %;0.0490 water mass %;0.0030 halide impurity mass %(dried by vacuum heating;solvent extraction)"]], "idout": "ABqQyG", "mw": "490.48", "formula": "C<SUB>14</SUB>H<SUB>24</SUB>F<SUB>6</SUB>N<SUB>4</SUB>O<SUB>4</SUB>S<SUB>2</SUB>", "name": "bis(dimethylamino)(butylmethylamino)cyclopropenium bis(trifluoromethanesulfonyl)amide"}], "title": "Phase transition properties: Normal melting temperature", "dhead": [["Normal melting temperature, K"]], "solvent": null, "data": [[["279.1", "2"]]], "footer": "", "expmeth": "DSC/DTA"}