{"constr": ["Pressure of 1 atm"], "ref": {"full": "Zhang, L.; Yan, Z.; Lv, Y.; Shen, S. (2021) J. Mol. Liq. 341, 117336.", "title": "Studies on synthesis, volume and conductivity behaviors of three novel pharmaceutical salts [CnPy][AceSA] (n = 8, 10, 12)"}, "phases": ["Crystal", "Liquid"], "title": "Phase transition properties: Normal melting temperature", "components": [{"name": "N-decylpyridinium ((4-acetamidophenyl)sulfonyl)(acetyl)amide", "formula": "C<SUB>25</SUB>H<SUB>37</SUB>N<SUB>3</SUB>O<SUB>4</SUB>S", "idout": "ABnYaD", "mw": "475.65", "sample": [["Source:", "synthesized by the authors"], ["Purification:", "NMR (proton)"], ["Purity:", "98 % (basis not specified)(dried in a desiccator;dried by vacuum heating)"]]}], "dhead": [["Normal melting temperature, K"]], "footer": "", "solvent": null, "data": [[["423.6", "1.1"]]], "expmeth": "DSC/DTA"}