{"ref": {"title": "Thermal analysis and heat capacities of pyridinium and imidazolium  ionic liquids", "full": "Calvar, N.; Gomez, E.; Macedo, E. A.; Dominguez, A. (2013) Thermochim. Acta 565, 178-82."}, "constr": ["Pressure of 1 atm"], "phases": ["Crystal", "Liquid"], "title": "Phase transition properties: Normal melting temperature", "components": [{"sample": [["Source:", "commercial source"], ["Initial purification:", "stated by supplier"], ["Initial purity:", "99 mass %"], ["Final purification:", "Karl Fischer titration"], ["Final purity:", "0.03 water mass %(dried by vacuum heating)"]], "mw": "402.33", "idout": "ABZTcB", "formula": "C<SUB>10</SUB>H<SUB>12</SUB>F<SUB>6</SUB>N<SUB>2</SUB>O<SUB>4</SUB>S<SUB>2</SUB>", "name": "1-ethyl-3-methylpyridinium bis((trifluoromethyl)sulfonyl)amide"}], "dhead": [["Normal melting temperature, K"]], "footer": "", "data": [[["272", "1"]]], "solvent": null, "expmeth": "DSC/DTA"}