{"title": "Phase transition properties: Normal melting temperature", "components": [{"formula": "C<SUB>13</SUB>H<SUB>28</SUB>F<SUB>3</SUB>NO<SUB>3</SUB>S", "name": "N,N,N-triethylhexan-1-aminium trifluoromethanesulfonate", "mw": "335.43", "idout": "ABMaTD", "sample": [["Source:", "synthesized by the authors"], ["Purification:", "NMR (proton);Karl Fischer titration"], ["Purity:", "96 mass %;0.044 water mass %;0.020 halide impurity mass %(dried by vacuum heating;solvent extraction)"]]}], "dhead": [["Normal melting temperature, K"]], "footer": "", "data": [[["347.83", "0.87"]]], "solvent": null, "expmeth": "DSC/DTA", "constr": ["Pressure of 1 atm"], "ref": {"title": "COSMO-RS predicted 1-octanol/water partition coefficient as useful ion descriptor for predicting phase behavior of aqueous solutions of ionic liquids", "full": "Zawadzki, M.; Paduszynski, K.; Krolikowska, M.; Grzechnik, E. (2020) J. Mol. Liq. 307, 112914."}, "phases": ["Crystal 1", "Liquid"]}