{"components": [{"sample": [["Purity analysis:", "unspecified"]], "name": "methyltriphenylphosphonium bromide", "formula": "C<SUB>19</SUB>H<SUB>18</SUB>BrP", "idout": "ABQkxU", "mw": "357.23"}], "title": "Phase transition properties: Normal melting temperature", "dhead": [["Normal melting temperature, K"]], "data": [[["502.15", "0"]]], "solvent": null, "footer": "", "expmeth": false, "constr": ["Pressure of 1 atm"], "ref": {"title": "Thiophene derivatives. II. Synthesis of 5-nitro-2-thiophenepolyenaldehydes by the Wittig reaction", "full": "Saikachi, Haruo; Taniguchi, Yoichi; Ogawa, Haru (1963) Yakugaku Zasshi 83, 582-6."}, "phases": ["Crystal", "Liquid"]}