{"title": "Phase transition properties: Normal melting temperature", "components": [{"mw": "348.50", "idout": "ABPBvB", "formula": "C<SUB>16</SUB>H<SUB>32</SUB>N<SUB>2</SUB>O<SUB>4</SUB>S", "name": "1-butyl-3-methylimidazolium octyl sulfate", "sample": [["Source:", "synthesized by the authors"], ["Purification:", "Karl Fischer titration"], ["Purity:", "0.1 water mass %(dried by vacuum heating)"]]}], "dhead": [["Normal melting temperature, K"]], "footer": "", "solvent": null, "data": [[["307.6", "3.1"]]], "expmeth": "DSC/DTA", "constr": ["Pressure of 1 atm"], "ref": {"title": "1-n-Butyl-3-methylimidazolium ([bmim]) octylsulfate an even greener ionic liquid", "full": "Wasserscheid, P.; van Hal, R.; Bosmann, A. (2002) Green Chem. 4, 400-404."}, "phases": ["Crystal", "Liquid"]}