{"title": "Phase transition properties: Normal melting temperature", "components": [{"sample": [["Source:", "synthesized by the authors"], ["Purification:", "estimation"], ["Purity:", "95 mass %"]], "name": "1,1'-(ethane-1,2-diyl)bis(3-(3-((3,3,4,4,5,5,6,6,7,7,8,8,9,9,10,10,10-heptadecafluorodecyl)thio)propyl)-1H-imidazol-3-ium) bis((trifluoromethyl)sulfonyl)imide", "formula": "C<SUB>38</SUB>H<SUB>30</SUB>F<SUB>46</SUB>N<SUB>6</SUB>O<SUB>8</SUB>S<SUB>6</SUB>", "idout": "AGbVrm", "mw": "1764.98"}], "dhead": [["Normal melting temperature, K"]], "footer": "", "data": [[["338.1", "5"]]], "solvent": null, "expmeth": "DSC/DTA", "constr": ["Pressure of 1 atm"], "ref": {"full": "Moore, L. M.J.; Greeson, K. T.; Redeker, N. D.; Zavala, J. J.; Le, T. C.; Gilmore, L. V.; Thompson, K. B.; Marcischak, J. C.; Quintana, A. S.; Teat, S. J.; Guenthner, A. J.; Ghiassi, K. B. (2019) J. Mol. Liq. 295, 111677.", "title": "Fluoroalkyl-functional imidazoles and imidazolium-based ionic liquids prepared via thiol-ene/yne click chemistry"}, "phases": ["Crystal", "Liquid"]}