{"dhead": [["Normal melting temperature, K"]], "components": [{"mw": "419.36", "idout": "ABchwx", "formula": "C<SUB>10</SUB>H<SUB>15</SUB>F<SUB>6</SUB>N<SUB>3</SUB>O<SUB>4</SUB>S<SUB>2</SUB>", "name": "1-butyl-3-methylimidazolium bis(trifluoromethylsulfonyl)imide", "sample": [["Source:", "synthesized by the authors"], ["Purity analysis:", "dried by vacuum heating"]]}], "title": "Phase transition properties: Normal melting temperature", "expmeth": "DSC/DTA", "data": [[["272.1", "4"]]], "solvent": null, "footer": "", "constr": ["Pressure of 1 atm"], "ref": {"title": "Structural studies of ambient temperature plastic crystal ion conductors", "full": "MacFarlane, D. R.; Meakin, P.; Amini, N.; Forsyth, M. (2001) J. Phys.: Condens. Matter 13, 8257-8267."}, "phases": ["Crystal", "Liquid"]}