{"constr": ["Pressure of 1 atm"], "ref": {"full": "Gomez, E.; Calvar, N.; Dominguez, A.; Macedo, E. A. (2018) Fluid Phase Equilib. 470, 51-59.", "title": "Thermal behavior and heat capacities of pyrrolidinium-based ionic liquids by DSC"}, "phases": ["Crystal 1", "Liquid"], "dhead": [["Normal melting temperature, K"]], "components": [{"idout": "ABabds", "mw": "408.37", "name": "1-methyl-1-propylpyrrolidinium bis[(trifluoromethyl)sulfonyl]imide", "formula": "C<SUB>10</SUB>H<SUB>18</SUB>F<SUB>6</SUB>N<SUB>2</SUB>O<SUB>4</SUB>S<SUB>2</SUB>", "sample": [["Source:", "commercial source"], ["Initial purification:", "stated by supplier"], ["Initial purity:", "99 mass %"], ["Final purification:", "Karl Fischer titration"], ["Final purity:", "0.01 halide impurity mass %;0.01 water mass %"]]}], "title": "Phase transition properties: Normal melting temperature", "expmeth": "DSC/DTA", "data": [[["283", "2"]]], "solvent": null, "footer": ""}