{"components": [{"idout": "ABCtHH", "mw": "285.33", "formula": "C<SUB>13</SUB>H<SUB>24</SUB>N<SUB>3</SUB>O<SUB>2</SUB>P", "name": "(buten-1-yl)triethylphosphonium 4-nitropyrazolide", "sample": [["Source:", "synthesized by the authors"], ["Purification:", "NMR (proton)"], ["Purity:", "98 % (basis not specified)"]]}], "title": "Phase transition properties: Normal melting temperature", "dhead": [["Normal melting temperature, K"]], "data": [[["312", "2"]]], "solvent": null, "footer": "", "expmeth": "DSC/DTA", "constr": ["Pressure of 1 atm"], "ref": {"full": "Fillion, J.; Xia, H.; DeSilva, M. A.; Quiroz-Guzman, M.; Brennecke, J. (2016) J. Chem. Eng. Data 61(8), 2897-2914.", "title": "Phase transitions, decomposition temperatures, viscosities and densities of phosphonium, ammonium and imidazolium ionic liquids with aprotic heterocyclic anions"}, "phases": ["Crystal", "Liquid"]}