{"data": [[["284.1", "1"]]], "solvent": null, "footer": "", "expmeth": "DSC/DTA", "components": [{"mw": "447.12", "idout": "ABhzzJ", "name": "N,N,N-triethyl-2-methoxyethan-1-aminium trifluoro(perfluorobutyl)borate", "formula": "C<SUB>13</SUB>H<SUB>22</SUB>BF<SUB>12</SUB>NO", "sample": [["Source:", "synthesized by the authors"], ["Initial purification:", "estimation"], ["Initial purity:", "98 mass %"], ["Final purification:", "not known"], ["Final purity:", "0.005 water mass %"]]}], "title": "Phase transition properties: Normal melting temperature", "dhead": [["Normal melting temperature, K"]], "phases": ["Crystal 1", "Liquid"], "constr": ["Pressure of 1 atm"], "ref": {"title": "Low-Melting, Low-Viscous, Hydrophobic Ionic Liquids: Aliphatic Quaternary Ammonium Salts with Perfluoroalkyltrifluoroborates", "full": "Zhou, Z.-B.; Matsumoto, H.; Tatsumi, K. (2005) Chem. Eur. J. 11, 752-766."}}