{"components": [{"sample": [["Source:", "commercial source"], ["Initial purification:", "stated by supplier"], ["Initial purity:", "99 mass %"], ["Final purification:", "Karl Fischer titration"], ["Final purity:", "0.026 water mass %(dried by vacuum heating)"]], "mw": "408.37", "idout": "ABabQc", "name": "1-ethyl-1-methylpiperidinium bis(trifluoromethylsulfonyl)imide", "formula": "C<SUB>10</SUB>H<SUB>18</SUB>F<SUB>6</SUB>N<SUB>2</SUB>O<SUB>4</SUB>S<SUB>2</SUB>"}], "title": "Phase transition properties: Normal melting temperature", "dhead": [["Normal melting temperature, K"]], "data": [[["357.71", "0.5"]]], "solvent": null, "footer": "", "expmeth": "Visual observation", "constr": ["Pressure of 1 atm"], "ref": {"title": "Physico-chemical properties and phase behaviour of piperidinium-based ionic liquids", "full": "Domanska, U.; Krolikowska, M.; Paduszynski, K. (2011) Fluid Phase Equilib. 303(1), 1-9."}, "phases": ["Crystal 1", "Liquid"]}