{"ref": {"title": "On the thermal stability of LiPF6", "full": "Zinigrad, Ella; Larush-Asraf, Liraz; Gnanaraj, Josef S.; Sprecher, Milon; Aurbach, Doron (2005) Thermochim. Acta 438(1-2), 184-191."}, "constr": ["Pressure of 1 atm"], "phases": ["Crystal", "Liquid"], "title": "Phase transition properties: Normal melting temperature", "components": [{"sample": [["Purity analysis:", "unspecified"]], "idout": "AAdLRX", "mw": "151.90", "formula": "F<SUB>6</SUB>LiP", "name": "lithium hexafluorophosphate"}], "dhead": [["Normal melting temperature, K"]], "footer": "", "solvent": null, "data": [[["467.44", "0.91"]]], "expmeth": "DSC/DTA"}