{"dhead": [["Normal melting temperature, K"]], "components": [{"formula": "C<SUB>24</SUB>H<SUB>44</SUB>ClN", "name": "3-methyl-1-octadecylpyridinium chloride", "idout": "ABVYDf", "mw": "382.07", "sample": [["Source:", "synthesized by others"], ["Purification:", "NMR (proton)"], ["Purity:", "99 mol %(dried by vacuum heating)"]]}], "title": "Phase transition properties: Normal melting temperature", "expmeth": "DSC/DTA", "data": [[["385.4", "0.8"]]], "solvent": null, "footer": "", "ref": {"full": "Pereiro, A. B.; Rodriguez, A.; Blesic, M.; Shimizu, K.; Canongia Lopes, J. N.; Rebelo, L. P. N. (2011) J. Chem. Eng. Data 56(12), 4356-4363.", "title": "Mixtures of Pyridine and Nicotine with Pyridinium-Based Ionic Liquids"}, "constr": ["Pressure of 1 atm"], "phases": ["Crystal", "Liquid"]}