{"title": "Phase transition properties: Normal melting temperature", "components": [{"idout": "ABchRt", "mw": "419.36", "name": "1,2-dimethyl-3-propylimidazolium bis[(trifluoromethyl)sulfonyl]imide", "formula": "C<SUB>10</SUB>H<SUB>15</SUB>F<SUB>6</SUB>N<SUB>3</SUB>O<SUB>4</SUB>S<SUB>2</SUB>", "sample": [["Source:", "commercial source"], ["Purification:", "stated by supplier"], ["Purity:", "99 % (basis not specified)"]]}], "dhead": [["Normal melting temperature, K"]], "footer": "", "solvent": null, "data": [[["281", "2"]]], "expmeth": "DSC/DTA", "constr": ["Pressure of 1 atm"], "ref": {"title": "Physical Properties of Selected Ionic Liquids for Use as Electrolytes and Other Industrial Applications", "full": "Fletcher, S. I.; Sillars, F. B.; Hudson, N. E.; Hall, P. J. (2010) J. Chem. Eng. Data 55(2), 778-782."}, "phases": ["Crystal", "Liquid"]}