{"ref": {"full": "Coker, T. G.; Ambrose, J.; Janz, G. J. (1970) J. Am. Chem. Soc. 92(18), 5293-5297.", "title": "Fusion properties of some ionic quaternary ammonium compounds"}, "constr": ["Pressure of 1 atm"], "phases": ["Crystal 1", "Liquid"], "dhead": [["Normal melting temperature, K"]], "components": [{"mw": "537.70", "idout": "ABzUWC", "name": "tetraheptylammonium iodide", "formula": "C<SUB>28</SUB>H<SUB>60</SUB>IN", "sample": [["Source:", "commercial source"]]}], "title": "Phase transition properties: Normal melting temperature", "expmeth": false, "data": [[["396.15", "0.5"]]], "solvent": null, "footer": ""}