{"solvent": null, "data": [[["361.45", "0.5"]]], "footer": "", "expmeth": "DSC/DTA", "components": [{"formula": "C<SUB>14</SUB>H<SUB>32</SUB>F<SUB>6</SUB>NP", "name": "N,N,N-triethyl-N-octylammonium hexafluorophosphate", "idout": "ABRFyX", "mw": "359.38", "sample": [["Source:", "synthesized by the authors"], ["Purification:", "Karl Fischer titration;ion-selective electrode;NMR (proton)"], ["Purity:", "0.0086 water mass %;0.0078 halide impurity mass %;99 % (basis not specified)(dried by vacuum heating)"]]}], "title": "Phase transition properties: Normal melting temperature", "dhead": [["Normal melting temperature, K"]], "phases": ["Crystal 1", "Liquid"], "ref": {"title": "Physicochemical Characterization of MFm -Based Ammonium Ionic Liquids", "full": "Li, H.; Zhao, G.; Liu, F.; Zhang, S. (2013) J. Chem. Eng. Data 58(6), 1505-1515."}, "constr": ["Pressure of 1 atm"]}