{"phases": ["Crystal", "Liquid"], "constr": ["Pressure of 1 atm"], "ref": {"title": "Ionic Liquids  Cation and Anion Influence on Aromatic Amine Solubility", "full": "Morais, A. R. C.; Lopes, A. M. d. C.; Bogel-Lukasik, E.; Bogel-Lukasik, R. (2013) Ind. Eng. Chem. Res. 52, 14722-14726."}, "expmeth": "Visual observation", "solvent": null, "data": [[["341.9", "1.6"]]], "footer": "", "dhead": [["Normal melting temperature, K"]], "components": [{"idout": "AAherF", "mw": "174.67", "formula": "C<SUB>8</SUB>H<SUB>15</SUB>ClN<SUB>2</SUB>", "name": "1-butyl-3-methylimidazolium chloride", "sample": [["Source:", "commercial source"], ["Initial purification:", "stated by supplier"], ["Initial purity:", "99 mass %"], ["Final purification:", "Karl Fischer titration"], ["Final purity:", "0.00039 water mass %(dried by vacuum heating)"]]}], "title": "Phase transition properties: Normal melting temperature"}