{"title": "Phase transition properties: Normal melting temperature", "components": [{"formula": "C<SUB>4</SUB>H<SUB>8</SUB>N<SUB>4</SUB>O<SUB>3</SUB>", "name": "1,4-dimethyl-4H-1,2,4-triazolium nitrate", "mw": "160.13", "idout": "AAepDn", "sample": [["Source:", "synthesized by the authors"], ["Purification:", "estimated by the compiler"], ["Purity:", "98 mol %"]]}], "dhead": [["Normal melting temperature, K"]], "footer": "", "data": [[["274.1", "1"]]], "solvent": null, "expmeth": "DSC/DTA", "constr": ["Pressure of 1 atm"], "ref": {"title": "New Energetic Salts Based on Nitrogen-Containing Heterocycles", "full": "Xue, H.; Gao, Y.; Twamley, B.; Shreeve, J. M. (2005) Chem. Mater. 17, 191-198."}, "phases": ["Crystal", "Liquid"]}