{"data": [[["306.1", "2"]]], "solvent": null, "footer": "", "expmeth": "DSC/DTA", "components": [{"sample": [["Source:", "commercial source"], ["Purification:", "stated by supplier"], ["Purity:", "99 mass %"], ["Purity analysis:", "none used"]], "name": "choline bis(trifluoromethylsulfonyl)imide", "formula": "C<SUB>7</SUB>H<SUB>14</SUB>F<SUB>6</SUB>N<SUB>2</SUB>O<SUB>5</SUB>S<SUB>2</SUB>", "idout": "ABVvav", "mw": "384.31"}], "title": "Phase transition properties: Normal melting temperature", "dhead": [["Normal melting temperature, K"]], "phases": ["Crystal 1", "Liquid"], "constr": ["Pressure of 1 atm"], "ref": {"full": "Villanueva, M.; Parajo, J. J.; Sanchez, P. B.; Garcia, J.; Salgado, J. (2015) J. Chem. Thermodyn. 91, 127-135.", "title": "Liquid range temperature of ionic liquids as potential working fluids for absorption heat pumps"}}