{"solvent": null, "data": [[["289.1", "4"]]], "footer": "", "expmeth": "DSC/DTA", "components": [{"sample": [["Source:", "synthesized by the authors"], ["Purity analysis:", "dried by vacuum heating"]], "formula": "C<SUB>9</SUB>H<SUB>18</SUB>F<SUB>6</SUB>N<SUB>2</SUB>O<SUB>4</SUB>S<SUB>2</SUB>", "name": "butyltrimethylammonium bis(trifluoromethylsulfonyl)imide", "mw": "396.36", "idout": "ABYLZx"}], "title": "Phase transition properties: Normal melting temperature", "dhead": [["Normal melting temperature, K"]], "phases": ["Crystal 1", "Liquid"], "ref": {"full": "MacFarlane, D. R.; Meakin, P.; Amini, N.; Forsyth, M. (2001) J. Phys.: Condens. Matter 13, 8257-8267.", "title": "Structural studies of ambient temperature plastic crystal ion conductors"}, "constr": ["Pressure of 1 atm"]}