{"expmeth": "Visual observation", "solvent": null, "data": [[["256.1", "2"]]], "footer": "", "dhead": [["Normal melting temperature, K"]], "components": [{"name": "1-ethyl-3-methylimidazolium bis((trifluoromethyl)sulfonyl)imide", "formula": "C<SUB>8</SUB>H<SUB>11</SUB>F<SUB>6</SUB>N<SUB>3</SUB>O<SUB>4</SUB>S<SUB>2</SUB>", "idout": "ABXNZH", "mw": "391.30", "sample": [["Source:", "commercial source"], ["Initial purification:", "stated by supplier"], ["Initial purity:", "98 mass %"], ["Final purification:", "Karl Fischer titration"], ["Final purity:", "0.007 water mass %(de-gassed by freezing and melting in vacuum;dried with chemical reagent)"]]}], "title": "Phase transition properties: Normal melting temperature", "phases": ["Metastable crystal", "Liquid"], "constr": ["Pressure of 1 atm"], "ref": {"title": "The phase envelopes of alternative solvents (ionic liquid, CO2) and building blocks of biomass origin (lactic acid, propionic acid)", "full": "Bogel-Lukasik, R.; Matkowska, D.; Zakrzewska, M. E.; Bogel-Lukasik, E.; Hofman, T. (2010) Fluid Phase Equilib. 295(2), 177-185."}}