{"title": "Phase transition properties: Normal melting temperature", "components": [{"sample": [["Source:", "commercial source"], ["Initial purification:", "stated by supplier"], ["Initial purity:", "97 mass %"], ["Final purification:", "Karl Fischer titration"], ["Final purity:", "0.37 water mass %(none used)"]], "name": "choline tosylate", "formula": "C<SUB>12</SUB>H<SUB>21</SUB>NO<SUB>4</SUB>S", "mw": "275.36", "idout": "ABAxqM"}], "dhead": [["Normal melting temperature, K"]], "footer": "", "solvent": null, "data": [[["378.1", "2"]]], "expmeth": "DSC/DTA", "constr": ["Pressure of 1 atm"], "ref": {"full": "Parajo, J.J.; Villanueva, M.; Troncoso, J.; Salgado, J. (2020) J. Chem. Thermodyn. 141, 105947.", "title": "Thermophysical properties of choline and pyridinium based ionic liquids as advanced materials for energy applications"}, "phases": ["Crystal 1", "Liquid"]}