{"ref": {"full": "Krolikowska, M.; Zawadzki, M.; Skonieczny, M. (2018) J. Mol. Liq. 265, 316-326.", "title": "The influence of bromide-based ionic liquids on solubility of {LiBr (1) + water (2)} system. Experimental (solid + liquid) phase equilibrium data. Part 2"}, "constr": ["Pressure of 1 atm"], "phases": ["Crystal", "Liquid"], "dhead": [["Normal melting temperature, K"]], "components": [{"formula": "C<SUB>8</SUB>H<SUB>17</SUB>BrN<SUB>2</SUB>", "name": "N-(cyanomethyl)-N,N,N-triethylammonium bromide", "mw": "221.14", "idout": "AAqbqA", "sample": [["Source:", "synthesized by the authors"], ["Purification:", "NMR (proton)"], ["Purity:", "95 mol %(crystallization from solution;dried by vacuum heating)"]]}], "title": "Phase transition properties: Normal melting temperature", "expmeth": "DSC/DTA", "data": [[["465", "5"]]], "solvent": null, "footer": ""}