{"components": [{"formula": "C<SUB>14</SUB>H<SUB>13</SUB>NO<SUB>3</SUB>S<SUB>2</SUB>", "name": "benzothiazolium p-toluenesulfonate", "mw": "307.38", "idout": "ABHFJd", "sample": [["Source:", "synthesized by the authors"], ["Purification:", "HPLC"], ["Purity:", "99 mass %(crystallization from solution;dried by vacuum heating)"]]}], "title": "Phase transition properties: Normal melting temperature", "dhead": [["Normal melting temperature, K"]], "data": [[["393.15", "0.5"]]], "solvent": null, "footer": "", "expmeth": "Visual observation", "ref": {"title": "Determination and correlation of the solubility of four Bronsted-acidic ionic liquids based on benzothiazolium cations in six alcohols", "full": "Wang, L.; Wang, X.; Zuo, T.; Sun, Q.; Liu, P.; Yao, S.; Song, H. (2014) J. Chem. Thermodyn. 72, 48-53."}, "constr": ["Pressure of 1 atm"], "phases": ["Crystal", "Liquid"]}