{"constr": ["Pressure of 1 atm"], "ref": {"title": "On the description, quantification, and prediction of deep eutectic mixtures", "full": "Kollau, Louise Josepha Bernadette Maria (2019) Ph.D. Thesis, Technische Universiteit Eindhoven, Eindhoven, Netherlands."}, "phases": ["Crystal", "Liquid"], "components": [{"sample": [["Source:", "commercial source"], ["Initial purification:", "stated by supplier"], ["Initial purity:", "99 mass %"], ["Final purification:", "Karl Fischer titration"], ["Final purity:", "0.000073 water mass %"]], "formula": "C<SUB>20</SUB>H<SUB>44</SUB>BrN", "name": "tetrapentylammonium bromide", "idout": "ABUomC", "mw": "378.48"}], "title": "Phase transition properties: Normal melting temperature", "dhead": [["Normal melting temperature, K"]], "data": [[["375.1", "1.1"]]], "solvent": null, "footer": "", "expmeth": "DSC/DTA"}