{"dhead": [["Normal melting temperature, K"]], "components": [{"idout": "ABdqxL", "mw": "425.42", "name": "1-propylhexahydrothiopyrylium bis((trifluoromethyl)sulfonyl)amide", "formula": "C<SUB>10</SUB>H<SUB>17</SUB>F<SUB>6</SUB>NO<SUB>4</SUB>S<SUB>3</SUB>", "sample": [["Source:", "synthesized by the authors"], ["Purification:", "estimated by the compiler;Karl Fischer titration"], ["Purity:", "97 % (basis not specified);0.0194 water mass %(dried by vacuum heating)"]]}], "title": "Phase transition properties: Normal melting temperature", "expmeth": "DSC/DTA", "data": [[["303.1", "1"]]], "solvent": null, "footer": "", "constr": ["Pressure of 1 atm"], "ref": {"title": "Novel hydrophobic cyclic sulfonium-based ionic liquids as potential electrolyte", "full": "Guo, L.; Pan, X.; Zhang, C.; Wang, M.; Cai, M.; Fang, X.; Dai, S. (2011) J. Mol. Liq. 158(2), 75-79."}, "phases": ["Crystal 1", "Liquid"]}