{"components": [{"sample": [["Source:", "synthesized by the authors"], ["Purification:", "estimated by the compiler"], ["Purity:", "98 mol %"]], "mw": "214.10", "idout": "AApJoy", "formula": "C<SUB>2</SUB>H<SUB>2</SUB>N<SUB>10</SUB>O<SUB>3</SUB>", "name": "3,5-diazido-1,2,4-triazolium nitrate"}], "title": "Phase transition properties: Normal melting temperature", "dhead": [["Normal melting temperature, K"]], "data": [[["370.1", "1"]]], "solvent": null, "footer": "", "expmeth": "DSC/DTA", "constr": ["Pressure of 1 atm"], "ref": {"title": "New Energetic Salts Based on Nitrogen-Containing Heterocycles", "full": "Xue, H.; Gao, Y.; Twamley, B.; Shreeve, J. M. (2005) Chem. Mater. 17, 191-198."}, "phases": ["Crystal", "Liquid"]}