{"constr": ["Pressure of 1 atm"], "ref": {"full": "Zhou, Z.-B.; Matsumoto, H.; Tatsumi, K. (2005) Chem. Eur. J. 11, 752-766.", "title": "Low-Melting, Low-Viscous, Hydrophobic Ionic Liquids: Aliphatic Quaternary Ammonium Salts with Perfluoroalkyltrifluoroborates"}, "phases": ["Crystal 1", "Liquid"], "components": [{"idout": "ABIyjG", "mw": "317.07", "name": "N,N-diethyl-N-methylpropan-1-aminium trifluoro(perfluoroethyl)borate", "formula": "C<SUB>10</SUB>H<SUB>20</SUB>BF<SUB>8</SUB>N", "sample": [["Source:", "synthesized by the authors"], ["Purification:", "estimation"], ["Purity:", "98 mass %"]]}], "title": "Phase transition properties: Normal melting temperature", "dhead": [["Normal melting temperature, K"]], "data": [[["327.1", "1"]]], "solvent": null, "footer": "", "expmeth": "DSC/DTA"}