{"components": [{"sample": [["Source:", "synthesized by the authors"], ["Purification:", "estimated by the compiler"], ["Purity:", "97 % (basis not specified)(dried by oven heating)"]], "mw": "541.46", "idout": "ACAGfi", "name": "tetraethylammonium tris[(trifluoromethyl)sulfonyl]methide", "formula": "C<SUB>12</SUB>H<SUB>20</SUB>F<SUB>9</SUB>NO<SUB>6</SUB>S<SUB>3</SUB>"}], "title": "Phase transition properties: Normal melting temperature", "dhead": [["Normal melting temperature, K"]], "data": [[["319.1", "2"]]], "solvent": null, "footer": "", "expmeth": "DSC/DTA", "constr": ["Pressure of 1 atm"], "ref": {"full": "Ngo, H. L.; LeCompte, K.; Hargens, L.; McEwen, A. B. (2000) Thermochim. Acta 357-358, 97-102.", "title": "Thermal properties of imidazolium ionic liquids"}, "phases": ["Crystal", "Liquid"]}