{"constr": ["Pressure of 1 atm"], "ref": {"full": "Curnow, O. J.; Polson, M. I. J.; Walst, K. J.; Yunis, R. (2018) RSC Adv. 8(50), 28313-28322.", "title": "Synthesis and physical properties of tris(dialkylamino)cyclopropenium dicyanamide ionic liquids"}, "phases": ["Crystal", "Liquid"], "components": [{"sample": [["Source:", "synthesized by the authors"], ["Purification:", "estimated by the compiler"], ["Purity:", "98 mass %(dried by vacuum heating;solvent extraction)"]], "name": "tris(dibutylamino)cyclopropenium dicyanamide", "formula": "C<SUB>29</SUB>H<SUB>54</SUB>N<SUB>6</SUB>", "idout": "ABpfbd", "mw": "486.79"}], "title": "Phase transition properties: Normal melting temperature", "dhead": [["Normal melting temperature, K"]], "data": [[["290.1", "2"]]], "solvent": null, "footer": "", "expmeth": "DSC/DTA"}