{"components": [{"sample": [["Source:", "synthesized by the authors"], ["Purification:", "estimated by the compiler"], ["Purity:", "98 mass %(crystallization from solution;dried by vacuum heating)"]], "name": "(S)-2-(methoxycarbonyl)-1,1-dimethylpyrrolidin-1-ium iodide", "formula": "C<SUB>8</SUB>H<SUB>16</SUB>INO<SUB>2</SUB>", "mw": "285.13", "idout": "ABCrzq"}], "title": "Phase transition properties: Normal melting temperature", "dhead": [["Normal melting temperature, K"]], "data": [[["377", "2"]]], "solvent": null, "footer": "", "expmeth": "DSC/DTA", "ref": {"full": "Sintra, T. E.; Gantman, M. G.; Ventura, S. P.M.; Coutinho, J. A.P.; Wasserscheid, P.; Schulz, P. S. (2019) J. Mol. Liq. 283, 410-416.", "title": "Synthesis and characterization of chiral ionic liquids based on quinine, L-proline and L-valine for enantiomeric recognition"}, "constr": ["Pressure of 1 atm"], "phases": ["Crystal", "Liquid"]}