{"phases": ["Crystal", "Liquid"], "ref": {"title": "Synthesis and properties of symmetrical N,N'-bis(alkyl)imidazolium bromotrichloroferrate(III) paramagnetic, room temperature ionic liquids with high short-term thermal stability", "full": "Greeson, K. T.; Hall, N. G.; Redeker, N. D.; Marcischak, J. C.; Gilmore, L. V.; Boatz, J. A.; Le, T. C.; Alston, J. R.; Guenthner, A. J.; Ghiassi, K. B. (2018) J. Mol. Liq. 265, 701-710."}, "constr": ["Pressure of 1 atm"], "expmeth": "DSC/DTA", "data": [[["298.2", "2.3"]]], "solvent": null, "footer": "", "dhead": [["Normal melting temperature, K"]], "components": [{"mw": "647.83", "idout": "ACUeMJ", "name": "1,3-didodecylimidazolium bromotrichloroferrate(III)", "formula": "C<SUB>27</SUB>H<SUB>53</SUB>BrCl<SUB>3</SUB>FeN<SUB>2</SUB>", "sample": [["Source:", "synthesized by the authors"], ["Purification:", "estimated by the compiler;thermal analysis using temperature-time measurement"], ["Purity:", "98 mass %;0.18 water mass %(crystallization from solution;dried in a desiccator;dried by vacuum heating)"]]}], "title": "Phase transition properties: Normal melting temperature"}