{"components": [{"sample": [["Source:", "synthesized by the authors"], ["Purification:", "estimated by the compiler;Karl Fischer titration"], ["Purity:", "97 mass %;0.96 water mass %(dried by vacuum heating)"]], "mw": "199.26", "idout": "AAmQaq", "name": "choline methanesulfonate", "formula": "C<SUB>6</SUB>H<SUB>17</SUB>NO<SUB>4</SUB>S"}], "title": "Phase transition properties: Normal melting temperature", "dhead": [["Normal melting temperature, K"]], "data": [[["347.8", "1.3"]]], "solvent": null, "footer": "", "expmeth": "DSC/DTA", "ref": {"full": "Brown, S. J.; Yalcin, D.; Pandiancherri, S.; Le, T. C.; Orhan, I.; Hearn, K.; Han, Q.; Drummond, C. J.; Greaves, T. L. (2022) J. Mol. Liq. 367, 120453.", "title": "Characterising a protic ionic liquid library with applied machine learning algorithms"}, "constr": ["Pressure of 1 atm"], "phases": ["Crystal 1", "Liquid"]}