{"constr": ["Pressure of 1 atm"], "ref": {"title": "Influence of the alkyl chain cation position on thermal behaviour: (1,2) and (1,4) pyridinium Bis(trifluoromethylsulfonyl)imide - Based ionic liquids", "full": "Gomez, Elena; Requejo, Patricia F.; Dominguez, Angeles; Macedo, Eugenia A. (2020) Fluid Phase Equilib. 519, 112658."}, "phases": ["Crystal", "Liquid"], "components": [{"name": "2-methyl-1-propylpyridinium bis((trifluoromethyl)sulfonyl)amide", "formula": "C<SUB>11</SUB>H<SUB>14</SUB>F<SUB>6</SUB>N<SUB>2</SUB>O<SUB>4</SUB>S<SUB>2</SUB>", "mw": "416.35", "idout": "ABcDsh", "sample": [["Source:", "commercial source"], ["Initial purification:", "stated by supplier"], ["Initial purity:", "99 mol %"], ["Final purification:", "Karl Fischer titration"], ["Final purity:", "0.0085 water mass %(dried by vacuum heating)"]]}], "title": "Phase transition properties: Normal melting temperature", "dhead": [["Normal melting temperature, K"]], "solvent": null, "data": [[["289", "2"]]], "footer": "", "expmeth": "DSC/DTA"}