{"components": [{"name": "1-butyl-3-methylpyridinium chloride", "formula": "C<SUB>10</SUB>H<SUB>16</SUB>ClN", "mw": "185.69", "idout": "AAjkra", "sample": [["Source:", "synthesized by others"], ["Purification:", "NMR (proton)"], ["Purity:", "99 mol %(dried by vacuum heating)"]]}], "title": "Phase transition properties: Normal melting temperature", "dhead": [["Normal melting temperature, K"]], "solvent": null, "data": [[["382.9", "2.5"]]], "footer": "", "expmeth": "Visual observation", "ref": {"title": "Mixtures of Pyridine and Nicotine with Pyridinium-Based Ionic Liquids", "full": "Pereiro, A. B.; Rodriguez, A.; Blesic, M.; Shimizu, K.; Canongia Lopes, J. N.; Rebelo, L. P. N. (2011) J. Chem. Eng. Data 56(12), 4356-4363."}, "constr": ["Pressure of 1 atm"], "phases": ["Crystal", "Liquid"]}