{"constr": ["Pressure of 1 atm"], "ref": {"full": "Noda, A.; Hayamizu, K.; Watanabe, M. (2001) J. Phys. Chem. B 105, 4603-4610.", "title": "Pulsed-Gradient Spin-Echo 1H and 19F NMR Ionic Diffusion Coefficient, Viscosity, and Ionic Conductivity of Non-Chloroaluminate Room-Temperature Ionic Liquids"}, "phases": ["Crystal", "Liquid"], "components": [{"mw": "197.97", "idout": "AAmDom", "name": "1-ethyl-3-methylimidazolium tetrafluoroborate", "formula": "C<SUB>6</SUB>H<SUB>11</SUB>BF<SUB>4</SUB>N<SUB>2</SUB>", "sample": [["Source:", "synthesized by the authors"], ["Purification:", "estimated by the compiler"], ["Purity:", "97 mass %(dried by vacuum heating)"]]}], "title": "Phase transition properties: Normal melting temperature", "dhead": [["Normal melting temperature, K"]], "data": [[["288", "1"]]], "solvent": null, "footer": "", "expmeth": "DSC/DTA"}