{"phases": ["Crystal", "Liquid"], "constr": ["Pressure of 1 atm"], "ref": {"full": "Fareghi-Alamdari, R.; Hatefipour, R. (2015) Thermochim. Acta 617, 172-178.", "title": "Synthesis and thermophysical characterization of novel azide functionalized imidazolium based ionic liquids"}, "expmeth": "DSC/DTA", "data": [[["292", "1"]]], "solvent": null, "footer": "", "dhead": [["Normal melting temperature, K"]], "components": [{"name": "3-(2-azido-3-(1-methyl-1H-imidazol-3-ium-3-yl)propyl)-1-vinyl-1H-imidazol-3-ium di(dicyanamide)", "formula": "C<SUB>16</SUB>H<SUB>17</SUB>N<SUB>13</SUB>", "idout": "ABXODD", "mw": "391.40", "sample": [["Source:", "synthesized by the authors"], ["Purity analysis:", "dried by vacuum heating"]]}], "title": "Phase transition properties: Normal melting temperature"}