{"ref": {"title": "Tunable aryl alkyl ionic liquids (TAAILs) based on 1-aryl-3,5-dimethyl-1H-pyrazoles", "full": "Ozdemir, M. C.; Ozgun, B. (2017) J. Mol. Liq. 248, 314-321."}, "constr": ["Pressure of 1 atm"], "phases": ["Crystal", "Liquid"], "components": [{"idout": "ABbDYH", "mw": "411.13", "formula": "C<SUB>12</SUB>H<SUB>14</SUB>BrF<SUB>6</SUB>N<SUB>2</SUB>P", "name": "1-(4-bromophenyl)-2,3,5-trimethylpyrazolium hexafluorophosphate", "sample": [["Source:", "synthesized by the authors"], ["Purification:", "estimated by the compiler"], ["Purity:", "98 mass %(crystallization from solution;dried by vacuum heating)"]]}], "title": "Phase transition properties: Normal melting temperature", "dhead": [["Normal melting temperature, K"]], "data": [[["452.95", "0.5"]]], "solvent": null, "footer": "", "expmeth": "DSC/DTA"}