{"components": [{"sample": [["Source:", "synthesized by others"], ["Purification:", "NMR (proton)"], ["Purity:", "99 mol %(dried by vacuum heating)"]], "mw": "354.02", "idout": "ABQElV", "name": "1-hexadecyl-3-methylpyridinium chloride", "formula": "C<SUB>22</SUB>H<SUB>40</SUB>ClN"}], "title": "Phase transition properties: Normal melting temperature", "dhead": [["Normal melting temperature, K"]], "data": [[["383", "0.8"]]], "solvent": null, "footer": "", "expmeth": "DSC/DTA", "ref": {"full": "Pereiro, A. B.; Rodriguez, A.; Blesic, M.; Shimizu, K.; Canongia Lopes, J. N.; Rebelo, L. P. N. (2011) J. Chem. Eng. Data 56(12), 4356-4363.", "title": "Mixtures of Pyridine and Nicotine with Pyridinium-Based Ionic Liquids"}, "constr": ["Pressure of 1 atm"], "phases": ["Crystal", "Liquid"]}