{"components": [{"name": "N-(3-cyanopropyl)pyridinium tricyanomethanide", "formula": "C<SUB>13</SUB>H<SUB>11</SUB>N<SUB>5</SUB>", "idout": "AAtgOf", "mw": "237.27", "sample": [["Source:", "synthesized by the authors"], ["Purification:", "NMR (proton);Karl Fischer titration;spectroscopy"], ["Purity:", "95 mol %;0.0550 water mass %;0.1130 halide impurity mass %(dried by vacuum heating)"]]}], "title": "Phase transition properties: Normal melting temperature", "dhead": [["Normal melting temperature, K"]], "solvent": null, "data": [[["305.2", "0.7"]]], "footer": "", "expmeth": "DSC/DTA", "ref": {"title": "Separation of organosulfur compounds from heptane by liquid-liquid extraction with tricyanomethanide based ionic liquids. Experimental data and NRTL correlation", "full": "Krolikowski, Marek; Wieckowski, Mikolaj; Zawadzki, Maciej (2020) J. Chem. Thermodyn. 149, 106149."}, "constr": ["Pressure of 1 atm"], "phases": ["Crystal", "Liquid"]}