{"constr": ["Pressure of 1 atm"], "ref": {"title": "Thermal analysis and heat capacities of pyridinium and imidazolium  ionic liquids", "full": "Calvar, N.; Gomez, E.; Macedo, E. A.; Dominguez, A. (2013) Thermochim. Acta 565, 178-82."}, "phases": ["Crystal", "Liquid"], "title": "Phase transition properties: Normal melting temperature", "components": [{"name": "1-butyl-3-methylimidazolium trifluoromethanesulfonate", "formula": "C<SUB>9</SUB>H<SUB>15</SUB>F<SUB>3</SUB>N<SUB>2</SUB>O<SUB>3</SUB>S", "mw": "288.29", "idout": "ABDWVo", "sample": [["Source:", "commercial source"], ["Initial purification:", "stated by supplier"], ["Initial purity:", "99 mass %"], ["Final purification:", "Karl Fischer titration"], ["Final purity:", "0.03 water mass %(dried by vacuum heating)"]]}], "dhead": [["Normal melting temperature, K"]], "footer": "", "data": [[["285", "1"]]], "solvent": null, "expmeth": "DSC/DTA"}