{"title": "Phase transition properties: Normal melting temperature", "components": [{"sample": [["Source:", "synthesized by the authors"], ["Purification:", "NMR (proton);Karl Fischer titration;NMR (proton)"], ["Purity:", "98 mol %;0.22 water mass %;0.02 halide impurity mass %(dried by vacuum heating)"]], "name": "1-methyl-3-(9Z,12Z)-9,12-octadecadien-1-yl-1H-imidazolium 1,1,1-trifluoro-N-[(trifluoromethyl)sulfonyl]methanesulfonamide", "formula": "C<SUB>24</SUB>H<SUB>39</SUB>F<SUB>6</SUB>N<SUB>3</SUB>O<SUB>4</SUB>S<SUB>2</SUB>", "mw": "611.70", "idout": "ACNhFN"}], "dhead": [["Normal melting temperature, K"]], "footer": "", "data": [[["226.4", "0.5"]]], "solvent": null, "expmeth": "DSC/DTA", "ref": {"full": "Murray, S. M.; Zimlich, T. K.; Mirjafari, A.; O'Brien, R. A.; Davis Jr., J. H.; West, K. N. (2013) J. Chem. Eng. Data 58(6), 1516-1522.", "title": "Thermophysical Properties of Imidazolium-Based Lipidic Ionic Liquids"}, "constr": ["Pressure of 1 atm"], "phases": ["Crystal", "Liquid"]}