{"constr": ["Pressure of 1 atm"], "ref": {"title": "Physical Properties of Selected Ionic Liquids for Use as Electrolytes and Other Industrial Applications", "full": "Fletcher, S. I.; Sillars, F. B.; Hudson, N. E.; Hall, P. J. (2010) J. Chem. Eng. Data 55(2), 778-782."}, "phases": ["Crystal", "Liquid"], "title": "Phase transition properties: Normal melting temperature", "components": [{"mw": "587.28", "idout": "ACIwcZ", "formula": "C<SUB>15</SUB>H<SUB>20</SUB>F<SUB>18</SUB>NP", "name": "1-butyl-1-methylpyrrolidinium tris(pentafluoroethyl)trifluorophosphate", "sample": [["Source:", "commercial source"], ["Purification:", "stated by supplier"], ["Initial purity:", "99 % (basis not specified)"], ["Final purity:", "1 water mass %;1 halide impurity mass %"]]}], "dhead": [["Normal melting temperature, K"]], "footer": "", "data": [[["277", "2"]]], "solvent": null, "expmeth": "DSC/DTA"}