{"title": "Phase transition properties: Normal melting temperature", "components": [{"idout": "AAWpNY", "mw": "118.56", "formula": "C<SUB>4</SUB>H<SUB>7</SUB>ClN<SUB>2</SUB>", "name": "1-methylimidazolium chloride", "sample": [["Source:", "commercial source"], ["Purification:", "stated by supplier"], ["Purity:", "95 mol %"]]}], "dhead": [["Normal melting temperature, K"]], "footer": "", "data": [[["359.1", "1"]]], "solvent": null, "expmeth": "DSC/DTA", "ref": {"title": "Liquid-Liquid Equilibrium in Systems with an Ionic Liquid: Experimental Data for an Example of the Biphasic Acid Scavenging Utilizing Ionic Liquids Process", "full": "Sahandzhieva, K.; Naydenov, D.; Perez-Salado Kamps, A.; Bart, H.-J.; Maurer, G. (2010) J. Chem. Eng. Data 55(11), 4903-4906."}, "constr": ["Pressure of 1 atm"], "phases": ["Crystal", "Liquid"]}