{"constr": ["Pressure of 1 atm"], "ref": {"full": "Adeosun, S. O. (1978) J. Therm. Anal. 14, 235-43.", "title": "A differential thermal analysis study of phase transitions in some mercury(II) carboxylates"}, "phases": ["Crystal 1", "Liquid"], "dhead": [["Normal melting temperature, K"]], "components": [{"mw": "543.11", "idout": "ACAXzf", "formula": "C<SUB>20</SUB>H<SUB>38</SUB>HgO<SUB>4</SUB>", "name": "mercuric decanoate", "sample": [["Source:", "synthesized by the authors"], ["Purification:", "spectroscopy"], ["Purity analysis:", "chemical reagent treatment"]]}], "title": "Phase transition properties: Normal melting temperature", "expmeth": false, "solvent": null, "data": [[["389.3", "0.2"]]], "footer": ""}