{"title": "Phase transition properties: Normal melting temperature", "components": [{"formula": "C<SUB>9</SUB>H<SUB>21</SUB>F<SUB>3</SUB>N<SUB>2</SUB>O<SUB>3</SUB>S", "name": "N-hexylethylenediammonium trifluoromethanesulfonate", "idout": "ABEfqP", "mw": "294.33", "sample": [["Source:", "synthesized by the authors"], ["Purification:", "estimation;Karl Fischer titration"], ["Purity:", "99 mass %;0.37 water mass %"]]}], "dhead": [["Normal melting temperature, K"]], "footer": "", "data": [[["321.95", "0"]]], "solvent": null, "expmeth": "DSC/DTA", "constr": ["Pressure of 1 atm"], "ref": {"full": "Er, H.; Wang, H. (2016) J. Mol. Liq. 220, 649-656.", "title": "Properties of protic ionic liquids composed of N-alkyl (=hexyl, octyl and 2-ethylhexyl) ethylenediaminum cations with trifluoromethanesulfonate and trifluoroacetate anion"}, "phases": ["Crystal", "Liquid"]}