{"footer": "", "data": [[["268.1", "2"]]], "solvent": null, "expmeth": "DSC/DTA", "title": "Phase transition properties: Normal melting temperature", "components": [{"mw": "237.24", "idout": "AAtgFT", "formula": "C<SUB>6</SUB>H<SUB>14</SUB>F<SUB>3</SUB>NO<SUB>3</SUB>S", "name": "diethylmethylammonium trifluoromethanesulfonate", "sample": [["Source:", "commercial source"], ["Purification:", "stated by supplier"], ["Purity:", "98 mass %"], ["Purity analysis:", "dried by oven heating"]]}], "dhead": [["Normal melting temperature, K"]], "phases": ["Crystal 1", "Liquid"], "constr": ["Pressure of 1 atm"], "ref": {"full": "Parajo, J.J.; Villanueva, M.; Sanchez, P.B.; Salgado, J. (2018) J. Chem. Thermodyn. 126, 1-10.", "title": "Liquid window of some biologically-active ionic liquids"}}