{"title": "Phase transition properties: Normal melting temperature", "components": [{"name": "1-butyl-3-methylimidazolium hexafluorophosphate", "formula": "C<SUB>8</SUB>H<SUB>15</SUB>F<SUB>6</SUB>N<SUB>2</SUB>P", "mw": "284.19", "idout": "ABChJv", "sample": [["Purity analysis:", "unspecified"]]}], "dhead": [["Normal melting temperature, K"]], "footer": "", "solvent": null, "data": [[["285.8", "0"]]], "expmeth": "Differential scanning calorimeter", "ref": {"full": "Endo, T.; Nishikawa, K. (2013) Chem. Phys. Lett. 584, 79.", "title": "?"}, "constr": ["Pressure of 1 atm"], "phases": ["Crystal", "Liquid"]}