{"ref": {"full": "Sintra, T. E.; Gantman, M. G.; Ventura, S. P.M.; Coutinho, J. A.P.; Wasserscheid, P.; Schulz, P. S. (2019) J. Mol. Liq. 283, 410-416.", "title": "Synthesis and characterization of chiral ionic liquids based on quinine, L-proline and L-valine for enantiomeric recognition"}, "constr": ["Pressure of 1 atm"], "phases": ["Crystal", "Liquid"], "title": "Phase transition properties: Normal melting temperature", "components": [{"sample": [["Source:", "synthesized by the authors"], ["Purification:", "estimated by the compiler"], ["Purity:", "98 mass %(dried by vacuum heating;solvent extraction)"]], "mw": "269.31", "idout": "AAzpRp", "formula": "C<SUB>9</SUB>H<SUB>19</SUB>NO<SUB>6</SUB>S", "name": "(S)-2-(methoxycarbonyl)-1,1-dimethylpyrrolidin-1-ium methylsulfate"}], "dhead": [["Normal melting temperature, K"]], "footer": "", "data": [[["230.4", "2"]]], "solvent": null, "expmeth": "DSC/DTA"}