{"constr": ["Pressure of 1 atm"], "ref": {"full": "Yang, X.-Z.; Wang, J. (2010) J. Chem. Eng. Data 55(7), 2594-2595.", "title": "Solubility of 1,1'-(Butane-1,4-diyl)-bis(3-methyl-1H-imidazolium-1-yl) Dihexafluorophosphate in Water, Acetophenone, Cyclohexanone, Acetylacetone, and 2-Butanone"}, "phases": ["Crystal", "Liquid"], "components": [{"mw": "510.25", "idout": "ABuGZK", "formula": "C<SUB>12</SUB>H<SUB>20</SUB>F<SUB>12</SUB>N<SUB>4</SUB>P<SUB>2</SUB>", "name": "3,3'-(butane-1,4-diyl)bis(1-methyl-1H-imidazolium) hexafluorophosphate(V)", "sample": [["Source:", "synthesized by others"], ["Purification:", "HPLC"], ["Purity:", "99 mass %"]]}], "title": "Phase transition properties: Normal melting temperature", "dhead": [["Normal melting temperature, K"]], "solvent": null, "data": [[["391.6", "2.9"]]], "footer": "", "expmeth": "Visual observation"}