{"phases": ["Crystal", "Liquid"], "ref": {"title": "Thermodynamic Phase Behavior of Ionic Liquids", "full": "Domanska, U.; Zolek-Tryznowska, Z.; Krolikowski, M. (2007) J. Chem. Eng. Data 52(5), 1872-1880."}, "constr": ["Pressure of 1 atm"], "expmeth": "DSC/DTA", "data": [[["322.9", "0.5"]]], "solvent": null, "footer": "", "dhead": [["Normal melting temperature, K"]], "components": [{"idout": "ABCPbo", "mw": "282.36", "formula": "C<SUB>13</SUB>H<SUB>18</SUB>N<SUB>2</SUB>O<SUB>3</SUB>S", "name": "1-ethyl-3-methylimidazolium 4-methylbenzenesulfonate", "sample": [["Source:", "commercial source"], ["Initial purification:", "stated by supplier"], ["Initial purity:", "98 mass %"], ["Final purification:", "Karl Fischer titration"], ["Final purity:", "0.018 water mass %(dried by vacuum heating)"]]}], "title": "Phase transition properties: Normal melting temperature"}