{"constr": ["Pressure of 1 atm"], "ref": {"full": "Kollau, Louise Josepha Bernadette Maria (2019) Ph.D. Thesis, Technische Universiteit Eindhoven, Eindhoven, Netherlands.", "title": "On the description, quantification, and prediction of deep eutectic mixtures"}, "phases": ["Crystal", "Liquid"], "dhead": [["Normal melting temperature, K"]], "components": [{"mw": "378.48", "idout": "ABUomC", "formula": "C<SUB>20</SUB>H<SUB>44</SUB>BrN", "name": "tetrapentylammonium bromide", "sample": [["Source:", "commercial source"], ["Initial purification:", "stated by supplier"], ["Initial purity:", "99 mass %"], ["Final purification:", "Karl Fischer titration"], ["Final purity:", "0.000073 water mass %"]]}], "title": "Phase transition properties: Normal melting temperature", "expmeth": "DSC/DTA", "data": [[["374.9", "0.4"]]], "solvent": null, "footer": ""}