{"components": [{"formula": "C<SUB>11</SUB>H<SUB>19</SUB>F<SUB>6</SUB>NO<SUB>4</SUB>S<SUB>3</SUB>", "name": "1-butylthianium bis(trifluoromethylsulfonyl)imide", "idout": "ABgaoQ", "mw": "439.45", "sample": [["Source:", "synthesized by the authors"], ["Purification:", "NMR (proton)"], ["Purity:", "99 % (basis not specified)"]]}], "title": "Phase transition properties: Normal melting temperature", "dhead": [["Normal melting temperature, K"]], "data": [[["263", "2"]]], "solvent": null, "footer": "", "expmeth": "DSC/DTA", "ref": {"title": "Phase transitions, decomposition temperatures, viscosities and densities of phosphonium, ammonium and imidazolium ionic liquids with aprotic heterocyclic anions", "full": "Fillion, J.; Xia, H.; DeSilva, M. A.; Quiroz-Guzman, M.; Brennecke, J. (2016) J. Chem. Eng. Data 61(8), 2897-2914."}, "constr": ["Pressure of 1 atm"], "phases": ["Crystal", "Liquid"]}