{"constr": ["Pressure of 1 atm"], "ref": {"title": "Density and Surface Tension of Ionic Liquids [Cnpy][NTf2] (n = 2, 4,  5)", "full": "Liu, Q.-S.; Yang, M.; Yan, P.-F.; Liu, X.-M.; Tan, Z.-C.; Welz-Biermann, U. (2010) J. Chem. Eng. Data 55(11), 4928-4930."}, "phases": ["Crystal 1", "Liquid"], "components": [{"name": "1-ethylpyridinium bis[(trifluoromethyl)sulfonyl]imide", "formula": "C<SUB>9</SUB>H<SUB>10</SUB>F<SUB>6</SUB>N<SUB>2</SUB>O<SUB>4</SUB>S<SUB>2</SUB>", "idout": "ABWiWC", "mw": "388.30", "sample": [["Source:", "synthesized by the authors"], ["Purification:", "Karl Fischer titration"], ["Purity:", "0.076955 water mass %"]]}], "title": "Phase transition properties: Normal melting temperature", "dhead": [["Normal melting temperature, K"]], "data": [[["303.6", "1"]]], "solvent": null, "footer": "", "expmeth": "DSC/DTA"}