{"ref": {"full": "Holbrey, J. D.; Reichert, W. M.; Swatloski, R. P.; Broker, G. A.; Pitner, W. R.; Seddon, K. R.; Rogers, R. D. (2002) Green Chem. 4, 407-413.", "title": "Efficient, halide free synthesis of new, low cost ionic liquids: 1,3-dialkylimidazolium salts containing methyl- and ethyl-sulfate anions"}, "constr": ["Pressure of 1 atm"], "phases": ["Crystal", "Liquid"], "dhead": [["Normal melting temperature, K"]], "components": [{"mw": "208.23", "idout": "AAoCnc", "name": "1,3-dimethylimidazolium methylsulfate", "formula": "C<SUB>6</SUB>H<SUB>12</SUB>N<SUB>2</SUB>O<SUB>4</SUB>S", "sample": [["Source:", "synthesized by the authors"], ["Purity analysis:", "dried by vacuum heating"]]}], "title": "Phase transition properties: Normal melting temperature", "expmeth": "DSC/DTA", "data": [[["316.1", "2"]]], "solvent": null, "footer": ""}