{"components": [{"formula": "C<SUB>8</SUB>H<SUB>18</SUB>F<SUB>2</SUB>N<SUB>2</SUB>O<SUB>5</SUB>S<SUB>2</SUB>", "name": "1-(2-methoxyethyl)-1-methylpyrrolidinium bis(fluorosulfonyl)amide", "idout": "ABKTiJ", "mw": "324.36", "sample": [["Source:", "synthesized by the authors"], ["Purification:", "Karl Fischer titration;estimated by the compiler"], ["Purity:", "0.0084 water mass %;98 mass %(dried by vacuum heating;solvent extraction;impurity adsorption)"]]}], "title": "Phase transition properties: Normal melting temperature", "dhead": [["Normal melting temperature, K"]], "data": [[["275", "2"]]], "solvent": null, "footer": "", "expmeth": "DSC/DTA", "constr": ["Pressure of 1 atm"], "ref": {"title": "Femtosecond Raman-Induced Kerr Effect Study of Temperature-Dependent Intermolecular Dynamics in Pyrrolidinium-Based Ionic Liquids: Effects of Anion Species", "full": "Kakinuma, S.; Shirota, H. (2019) J. Phys. Chem. B 123(6), 1307-1323."}, "phases": ["Crystal", "Liquid"]}