{"title": "Phase transition properties: Normal melting temperature", "components": [{"sample": [["Source:", "synthesized by the authors"], ["Purification:", "estimated by the compiler"], ["Purity:", "97 % (basis not specified)(dried by oven heating)"]], "idout": "ABZxrn", "mw": "405.33", "name": "1-methyl-3-(1-methylethyl)imidazolium bis[(trifluoromethyl)sulfonyl]imide", "formula": "C<SUB>9</SUB>H<SUB>13</SUB>F<SUB>6</SUB>N<SUB>3</SUB>O<SUB>4</SUB>S<SUB>2</SUB>"}], "dhead": [["Normal melting temperature, K"]], "footer": "", "data": [[["289.1", "2"]]], "solvent": null, "expmeth": "DSC/DTA", "ref": {"title": "Thermal properties of imidazolium ionic liquids", "full": "Ngo, H. L.; LeCompte, K.; Hargens, L.; McEwen, A. B. (2000) Thermochim. Acta 357-358, 97-102."}, "constr": ["Pressure of 1 atm"], "phases": ["Crystal", "Liquid"]}