{"constr": ["Pressure of 1 atm"], "ref": {"full": "Kollau, Louise Josepha Bernadette Maria (2019) Ph.D. Thesis, Technische Universiteit Eindhoven, Eindhoven, Netherlands.", "title": "On the description, quantification, and prediction of deep eutectic mixtures"}, "phases": ["Crystal", "Liquid"], "title": "Phase transition properties: Normal melting temperature", "components": [{"name": "tetrapentylammonium bromide", "formula": "C<SUB>20</SUB>H<SUB>44</SUB>BrN", "idout": "ABUomC", "mw": "378.48", "sample": [["Source:", "commercial source"], ["Initial purification:", "stated by supplier"], ["Initial purity:", "99 mass %"], ["Final purification:", "Karl Fischer titration"], ["Final purity:", "0.000073 water mass %"]]}], "dhead": [["Normal melting temperature, K"]], "footer": "", "data": [[["375", "1"]]], "solvent": null, "expmeth": "DSC/DTA"}