{"title": "Phase transition properties: Normal melting temperature", "components": [{"formula": "C<SUB>21</SUB>H<SUB>44</SUB>ClNO<SUB>6</SUB>", "name": "2-(hexadecyloxy)-N,N,N-trimethyl-2-oxoethan-1-aminium perchlorate", "mw": "442.03", "idout": "ABhANL", "sample": [["Source:", "synthesized by the authors"], ["Purification:", "estimation"], ["Purity:", "98 mass %(dried by vacuum heating)"]]}], "dhead": [["Normal melting temperature, K"]], "footer": "", "solvent": null, "data": [[["372.1", "0"]]], "expmeth": "DSC/DTA", "constr": ["Pressure of 1 atm"], "ref": {"full": "De Gaetano, Y.; Mohamadou, A.; Boudesocque, S.; Hubert, J.; Plantier-Royon, R.; Dupont, L. (2015) J. Mol. Liq. 207, 60-66.", "title": "Ionic liquids derived from esters of Glycine Betaine: Synthesis and characterization"}, "phases": ["Crystal", "Liquid"]}