{"ref": {"full": "Gu, Yan-Long; Shi, Feng; Deng, You-Quan (2004) Huaxue Xuebao 62(5), 532-536.", "title": "Room temperature ionic liquid as leaching reagent for separation of the solid mixture of taurine and sodium sulfate"}, "constr": ["Pressure of 1 atm"], "phases": ["Crystal", "Liquid"], "components": [{"idout": "ABBXWo", "mw": "277.92", "name": "tetrabutylammonium chloride", "formula": "C<SUB>16</SUB>H<SUB>36</SUB>ClN", "sample": [["Purification:", "not known"]]}], "title": "Phase transition properties: Normal melting temperature", "dhead": [["Normal melting temperature, K"]], "solvent": null, "data": [[["348.1", "0"]]], "footer": "", "expmeth": "Visual observation"}