{"constr": ["Pressure of 1 atm"], "ref": {"full": "Sudholter, E. J. R.; Engberts, J. B. F. N.; de Jeu, W. H. (1982) J. Phys. Chem. 86, 1908-13.", "title": "Thermotropic liquid-crystalline behavior of some single- and double-chained pyridinium amphiphiles"}, "phases": ["Crystal", "Liquid"], "dhead": [["Normal melting temperature, K"]], "components": [{"formula": "C<SUB>18</SUB>H<SUB>34</SUB>ClN", "name": "4-dodecyl-1-methylpyridinium chloride", "idout": "ABFjcr", "mw": "299.93", "sample": [["Source:", "synthesized by the authors"]]}], "title": "Phase transition properties: Normal melting temperature", "expmeth": false, "solvent": null, "data": [[["323.9", "1.5"]]], "footer": ""}