{"title": "Phase transition properties: Normal melting temperature", "components": [{"formula": "C<SUB>2</SUB>H<SUB>5</SUB>N<SUB>5</SUB>O<SUB>3</SUB>", "name": "1-amino-1H-1,2,4-triazol-1-ium nitrate", "mw": "147.09", "idout": "AAcOQP", "sample": [["Source:", "synthesized by the authors"], ["Purification:", "estimated by the compiler"], ["Purity:", "97 % (basis not specified)(dried by vacuum heating)"]]}], "dhead": [["Normal melting temperature, K"]], "footer": "", "solvent": null, "data": [[["394.1", "1"]]], "expmeth": "DSC/DTA", "constr": ["Pressure of 1 atm"], "ref": {"title": "Energetic Salts of N-Aminoazoles", "full": "Xue, H.; Arritt, S. W.; Twamley, B.; Shreeve, J. M. (2004) Inorg. Chem. 43, 7972-7977."}, "phases": ["Crystal", "Liquid"]}