{"constr": ["Pressure of 1 atm"], "ref": {"full": "Appetecchi, G. B.; Montanino, M.; Carewska, M.; Moreno, M.; Alessandrini, F.; Passerini, S. (2011) Electrochim. Acta 56, 1300-1307.", "title": "Chemical physical properties of bis(perfluoroalkylsulfonyl)imide-based ionic liquids"}, "phases": ["Crystal", "Liquid"], "components": [{"idout": "ABuISo", "mw": "510.41", "name": "tetraethyammonium bis[(pentafluoroethyl)sulfonyl]imide", "formula": "C<SUB>12</SUB>H<SUB>20</SUB>F<SUB>10</SUB>N<SUB>2</SUB>O<SUB>4</SUB>S<SUB>2</SUB>", "sample": [["Source:", "synthesized by the authors"], ["Purification:", "estimated by the compiler"], ["Purity:", "99.8 mass %"]]}], "title": "Phase transition properties: Normal melting temperature", "dhead": [["Normal melting temperature, K"]], "data": [[["356.6", "1.1"]]], "solvent": null, "footer": "", "expmeth": "DSC/DTA"}