{"expmeth": "DSC/DTA", "data": [[["341.35", "0.5"]]], "solvent": null, "footer": "", "dhead": [["Normal melting temperature, K"]], "components": [{"idout": "ABJBbs", "mw": "317.31", "formula": "C<SUB>15</SUB>H<SUB>29</SUB>BrN<SUB>2</SUB>", "name": "1-decyl-2,3-dimethylimidazolium bromide", "sample": [["Source:", "synthesized by the authors"], ["Purification:", "Karl Fischer titration"], ["Purity:", "0.05 water mass %(dried by vacuum heating)"]]}], "title": "Phase transition properties: Normal melting temperature", "phases": ["Crystal", "Liquid"], "constr": ["Pressure of 1 atm"], "ref": {"title": "Thermodynamical properties of phase change materials based on ionic liquids", "full": "Zhu, J.; Bai, L.; Chen, B.; Fei, W. (2009) Chem. Eng. J. 147, 58-62."}}