{"constr": ["Pressure of 1 atm"], "ref": {"title": "From gene delivery agents to ionic liquids: The impacts of cation structure and anion identity on liquefaction", "full": "Burton, Rachel D.; Siegel, David J.; Muller II, Joseph E.; Regner, Matthew; Sheng, Yinghong; McManus, Gregory J.; MacDonald Jr., James H.; Mirjafari, Arsalan (2019) J. Mol. Liq. 296, 111758."}, "phases": ["Crystal", "Liquid"], "title": "Phase transition properties: Normal melting temperature", "components": [{"mw": "617.52", "idout": "ACOnbW", "formula": "C<SUB>35</SUB>H<SUB>69</SUB>ClN<SUB>2</SUB>S<SUB>2</SUB>", "name": "3-(2,3-bis(tetradecylthio)propyl)-1-methylimidazolium chloride", "sample": [["Source:", "synthesized by the authors"], ["Purification:", "estimated by the compiler"], ["Purity:", "98 mass %(crystallization from solution)"]]}], "dhead": [["Normal melting temperature, K"]], "footer": "", "data": [[["328.4", "1.1"]]], "solvent": null, "expmeth": "DSC/DTA"}