{"dhead": [["Normal melting temperature, K"]], "components": [{"name": "1-(2-hydroxyethyl)-3-methylimidazolium palmitate", "formula": "C<SUB>22</SUB>H<SUB>42</SUB>N<SUB>2</SUB>O<SUB>3</SUB>", "mw": "382.59", "idout": "ABVdnS", "sample": [["Source:", "synthesized by the authors"], ["Purification:", "estimated by the compiler"], ["Purity:", "97 mass %(dried by vacuum heating)"]]}], "title": "Phase transition properties: Normal melting temperature", "expmeth": "DSC/DTA", "solvent": null, "data": [[["335.6", "1.1"]]], "footer": "", "ref": {"title": "Surface active fatty acid ILs: Influence of the hydrophobic tail and/or the imidazolium hydroxyl functionalization on aggregates formation", "full": "Mezzetta, A.; Luczak, J.; Woch, J.; Chiappe, C.; Nowicki, J.; Guazzelli, L. (2019) J. Mol. Liq. 289, 111155."}, "constr": ["Pressure of 1 atm"], "phases": ["Crystal", "Liquid"]}