{"components": [{"sample": [["Source:", "commercial source"], ["Purification:", "stated by supplier"], ["Purity:", "98 mass %"], ["Purity analysis:", "none used"]], "formula": "C<SUB>16</SUB>H<SUB>31</SUB>ClN<SUB>2</SUB>", "name": "1-dodecyl-3-methylimidazolium chloride", "idout": "ABDIXm", "mw": "286.89"}], "title": "Phase transition properties: Normal melting temperature", "dhead": [["Normal melting temperature, K"]], "solvent": null, "data": [[["369.8", "1"]]], "footer": "", "expmeth": "DSC/DTA", "ref": {"full": "Domanska, U.; Bogel-Lukasik, E.; Bogel-Lukasik, R. (2003) J. Phys. Chem. B 107, 1858-1863.", "title": "Solubility of 1-Dodecyl-3-methylimidazolium chloride in Alcohols (C2-C12)"}, "constr": ["Pressure of 1 atm"], "phases": ["Crystal 1", "Liquid"]}