{"constr": ["Pressure of 1 atm"], "ref": {"title": "Conductance Behavior of Electrolytes in 3-Methylsulfolane at 25 C.", "full": "Rosenfarb, J.; Martin, M.; Prakash, C.; Caruso, J. A. (1976) J. Solution Chem. 5(5), 311-318."}, "phases": ["Crystal", "Liquid"], "components": [{"formula": "C<SUB>43</SUB>H<SUB>62</SUB>BN", "name": "butyltriisoamylammonium tetraphenylborate", "mw": "603.79", "idout": "ACMFkq", "sample": [["Source:", "synthesized by the authors"], ["Purification:", "estimated by the compiler"], ["Purity:", "99 % (basis not specified)(crystallization from solution;dried by vacuum heating)"]]}], "title": "Phase transition properties: Normal melting temperature", "dhead": [["Normal melting temperature, K"]], "data": [[["536.6", "3"]]], "solvent": null, "footer": "", "expmeth": "Visual observation"}