{"ref": {"title": "Phase equilibria study of the binary systems (ionic liquid + thiophene):  Desulphurization process", "full": "Domanska, U.; Krolikowski, M.; Slesinska, K. (2009) J. Chem. Thermodyn. 41(11), 1303-1311."}, "constr": ["Pressure of 1 atm"], "phases": ["Crystal", "Liquid"], "dhead": [["Normal melting temperature, K"]], "components": [{"mw": "293.38", "idout": "ABEVqe", "formula": "C<SUB>15</SUB>H<SUB>19</SUB>NO<SUB>3</SUB>S", "name": "2,4,6-trimethylpyridinium 4-methylbenzenesulfonate", "sample": [["Source:", "commercial source"], ["Initial purification:", "stated by supplier"], ["Initial purity:", "98 % (basis not specified)"], ["Final purification:", "Karl Fischer titration"], ["Final purity:", "0.026 water mass %(de-gassed by evacuation)"]]}], "title": "Phase transition properties: Normal melting temperature", "expmeth": "DSC/DTA", "data": [[["403.7", "0.5"]]], "solvent": null, "footer": ""}