{"title": "Phase transition properties: Normal melting temperature", "components": [{"sample": [["Source:", "synthesized by the authors"], ["Purification:", "estimation"], ["Purity:", "98 mass %"]], "mw": "431.12", "idout": "ABevtz", "formula": "C<SUB>13</SUB>H<SUB>22</SUB>BF<SUB>12</SUB>N", "name": "N,N-diethyl-N-methylbutan-1-aminium trifluoro(perfluorobutyl)borate"}], "dhead": [["Normal melting temperature, K"]], "footer": "", "data": [[["333.1", "1"]]], "solvent": null, "expmeth": "DSC/DTA", "ref": {"full": "Zhou, Z.-B.; Matsumoto, H.; Tatsumi, K. (2005) Chem. Eur. J. 11, 752-766.", "title": "Low-Melting, Low-Viscous, Hydrophobic Ionic Liquids: Aliphatic Quaternary Ammonium Salts with Perfluoroalkyltrifluoroborates"}, "constr": ["Pressure of 1 atm"], "phases": ["Crystal 1", "Liquid"]}