{"components": [{"idout": "AApmOO", "mw": "217.06", "formula": "C<SUB>8</SUB>H<SUB>20</SUB>BF<SUB>4</SUB>N", "name": "tetraethylammonium tetrafluoroborate", "sample": [["Source:", "synthesized by the authors"], ["Purification:", "estimated by the compiler"], ["Purity:", "99 mass %(dried in a desiccator;dried by vacuum heating)"]]}], "title": "Phase transition properties: Normal melting temperature", "dhead": [["Normal melting temperature, K"]], "solvent": null, "data": [[["364.1", "1"]]], "footer": "", "expmeth": "DSC/DTA", "ref": {"full": "Bhatt, Vasishta D.; Gohil, Kuldip (2013) Bull. Mater. Sci. 36, 1121-1125.", "title": "Ion exchange synthesis and thermal characteristics of some N+ 2222 based ionic liquids"}, "constr": ["Pressure of 1 atm"], "phases": ["Crystal", "Liquid"]}