{"title": "Phase transition properties: Normal melting temperature", "components": [{"idout": "AAhaEl", "mw": "174.21", "formula": "C<SUB>9</SUB>H<SUB>10</SUB>N<SUB>4</SUB>", "name": "1-ethylpyridinium dicyanamide", "sample": [["Source:", "synthesized by the authors"], ["Purification:", "estimated by the compiler;Karl Fischer titration"], ["Purity:", "97 mol %;0.298 water mass %(dried by vacuum heating)"]]}], "dhead": [["Normal melting temperature, K"]], "footer": "", "data": [[["240", "5"]]], "solvent": null, "expmeth": "DSC/DTA", "ref": {"full": "Ma, X.-X.; Wei, J.; Guan, W.; Pan, Y.; Zheng, L.; Wu, Y.; Yang, J.-Z. (2015) J. Chem. Thermodyn. 89, 51-59.", "title": "Ionic parachor and its application to pyridinium-based ionic liquids of {[Cnpy][DCA] (n = 2, 3, 4, 5, 6)}"}, "constr": ["Pressure of 1 atm"], "phases": ["Crystal", "Liquid"]}