{"constr": ["Pressure of 1 atm"], "ref": {"title": "Thermal properties of imidazolium ionic liquids", "full": "Ngo, H. L.; LeCompte, K.; Hargens, L.; McEwen, A. B. (2000) Thermochim. Acta 357-358, 97-102."}, "phases": ["Crystal", "Liquid"], "title": "Phase transition properties: Normal melting temperature", "components": [{"sample": [["Source:", "synthesized by the authors"], ["Purification:", "estimated by the compiler"], ["Purity:", "97 % (basis not specified)(dried by oven heating)"]], "name": "1-methyl-3-(1-methylethyl)imidazolium iodide", "formula": "C<SUB>7</SUB>H<SUB>13</SUB>IN<SUB>2</SUB>", "mw": "252.10", "idout": "AAwYJq"}], "dhead": [["Normal melting temperature, K"]], "footer": "", "data": [[["387.1", "2"]]], "solvent": null, "expmeth": "DSC/DTA"}