{"title": "Phase transition properties: Normal melting temperature", "components": [{"formula": "C<SUB>22</SUB>H<SUB>43</SUB>F<SUB>6</SUB>N<SUB>2</SUB>P", "name": "1-methyl-3-octadecylimidazolium hexafluorophosphate", "mw": "480.56", "idout": "ABoVDR", "sample": [["Purity analysis:", "unspecified"]]}], "dhead": [["Normal melting temperature, K"]], "footer": "", "solvent": null, "data": [[["353.1", "6"]]], "expmeth": "unknown", "ref": {"full": "Sakizadeh, K.; Olson, L. P.; Cowdery-Corvan, P. J.; Ishida, T.; Whitcomb, D. R. (2007) U.S. Patent US7163786B1, 2007, Jan. 16.", "title": "THERMOGRAPHIC MATERIALS CONTAINING IONIC LIQUIDS"}, "constr": ["Pressure of 1 atm"], "phases": ["Crystal", "Liquid"]}