{"components": [{"formula": "C<SUB>8</SUB>H<SUB>15</SUB>ClN<SUB>2</SUB>", "name": "1,2-dimethyl-3-propylimidazolium chloride", "mw": "174.67", "idout": "AAhejA", "sample": [["Source:", "synthesized by the authors"], ["Purification:", "estimated by the compiler"], ["Purity:", "97 % (basis not specified)(dried by oven heating)"]]}], "title": "Phase transition properties: Normal melting temperature", "dhead": [["Normal melting temperature, K"]], "data": [[["411.1", "2"]]], "solvent": null, "footer": "", "expmeth": "DSC/DTA", "ref": {"full": "Ngo, H. L.; LeCompte, K.; Hargens, L.; McEwen, A. B. (2000) Thermochim. Acta 357-358, 97-102.", "title": "Thermal properties of imidazolium ionic liquids"}, "constr": ["Pressure of 1 atm"], "phases": ["Crystal", "Liquid"]}