{"footer": "", "solvent": null, "data": [[["383.15", "0.5"]]], "expmeth": false, "title": "Phase transition properties: Normal melting temperature", "components": [{"sample": [["Source:", "synthesized by others"], ["Purity analysis:", "crystallization from solution"]], "formula": "C<SUB>24</SUB>H<SUB>52</SUB>ClNO<SUB>4</SUB>", "name": "tetrahexylammonium perchlorate", "idout": "ABjRlX", "mw": "454.13"}], "dhead": [["Normal melting temperature, K"]], "phases": ["Crystal 1", "Liquid"], "constr": ["Pressure of 1 atm"], "ref": {"full": "Coker, T. G.; Ambrose, J.; Janz, G. J. (1970) J. Am. Chem. Soc. 92(18), 5293-5297.", "title": "Fusion properties of some ionic quaternary ammonium compounds"}}