{"title": "Phase transition properties: Normal melting temperature", "components": [{"idout": "ABhNdx", "mw": "443.36", "name": "1-decyl-3-methyl-2-(thiazol-4-yl)benzimidazolium tetrafluoroborate", "formula": "C<SUB>21</SUB>H<SUB>30</SUB>BF<SUB>4</SUB>N<SUB>3</SUB>S", "sample": [["Source:", "synthesized by the authors"], ["Purification:", "estimated by the compiler"], ["Purity:", "98 mass %(crystallization from solution;dried by vacuum heating)"]]}], "dhead": [["Normal melting temperature, K"]], "footer": "", "data": [[["341.1", "2"]]], "solvent": null, "expmeth": "Visual observation", "ref": {"full": "El Bourakadi, K.; Merghoub, N.; Hicham, G.; Mekhzoum, M. E. M.; Essassi, E. M.; Qaiss, A. e. k.; Bouhfid, R. (2019) J. Mol. Liq. 282, 63-69.", "title": "Synthesis, characterization and in vitro antiproliferative evaluation of ionic liquids based on alkyl-substituted thiabendazolium"}, "constr": ["Pressure of 1 atm"], "phases": ["Crystal", "Liquid"]}