{"expmeth": false, "data": [[["385", "1"]]], "solvent": null, "footer": "", "dhead": [["Normal melting temperature, K"]], "components": [{"idout": "ABpqSB", "mw": "487.86", "name": "thallium(1+) stearate", "formula": "C<SUB>18</SUB>H<SUB>35</SUB>O<SUB>2</SUB>Tl", "sample": [["Source:", "synthesized by the authors"], ["Purity analysis:", "dried by vacuum heating"]]}], "title": "Phase transition properties: Normal melting temperature", "phases": ["Crystal 1", "Liquid"], "ref": {"title": "DSC thermophysics on some lower thallium(I) n-alkanoates", "full": "Fernandez-Martin, F.; Lopez de la Fuente, F. L.; Cheda, J. A. R. (1984) Thermochim. Acta 73(1-2), 109-115."}, "constr": ["Pressure of 1 atm"]}