{"dhead": [["Normal melting temperature, K"]], "components": [{"formula": "C<SUB>10</SUB>H<SUB>15</SUB>F<SUB>6</SUB>N<SUB>3</SUB>O<SUB>4</SUB>S<SUB>2</SUB>", "name": "1-butyl-3-methylimidazolium bis(trifluoromethylsulfonyl)imide", "mw": "419.36", "idout": "ABchwx", "sample": [["Source:", "synthesized by the authors"], ["Purification:", "Karl Fischer titration"], ["Purity:", "0.001 water mass %(chemical reagent treatment;dried by vacuum heating)"]]}], "title": "Phase transition properties: Normal melting temperature", "expmeth": "DSC/DTA", "data": [[["270.1", "1"]]], "solvent": null, "footer": "", "ref": {"full": "Tokuda, H.; Hayamizu, K.; Ishii, K.; Susan, M. A. B. H.; Watanabe, M. (2005) J. Phys. Chem. B 109(13), 6103-6110.", "title": "Physicochemical Properties and Structures of Room Temperature Ionic Liquids. 2. Variation of Alkyl Chain Length in Imidazolium Cation"}, "constr": ["Pressure of 1 atm"], "phases": ["Crystal", "Liquid"]}