{"dhead": [["Normal melting temperature, K"]], "components": [{"mw": "354.32", "idout": "ABQHTW", "formula": "C<SUB>13</SUB>H<SUB>25</SUB>F<SUB>6</SUB>N<SUB>2</SUB>P", "name": "1-nonyl-3-methylimidazolium hexafluorophosphate", "sample": [["Source:", "synthesized by the authors"], ["Purification:", "estimated by the compiler"], ["Purity:", "98 mass %(dried by vacuum heating)"]]}], "title": "Phase transition properties: Normal melting temperature", "expmeth": "DSC/DTA", "data": [[["287.1", "4"]]], "solvent": null, "footer": "", "constr": ["Pressure of 1 atm"], "ref": {"full": "Dzyuba, S. V.; Bartsch, R. A. (2002) ChemPhysChem 3, 161-166.", "title": "Influence of Structural Variations in 1-Alkyl(aralkyl)-3-Methylimidazolium Hexafluorophosphates and Bis(trifluromethylsulfonyl)imides on Physical Properties of the Ionic Liquids"}, "phases": ["Crystal", "Liquid"]}