{"ref": {"full": "Pernak, J.; Wasinski, K.; Praczyk, T.; Nawrot, J.; Cieniecka-Roslonkiewicz, A.; Walkiewicz, F.; Materna, K. (2012) Sci. China Chem. 55(8), 1532-1541.", "title": "Sweet ionic liquids-cyclamates: Synthesis, properties, and application as feeding deterrents"}, "constr": ["Pressure of 1 atm"], "phases": ["Crystal", "Liquid"], "title": "Phase transition properties: Normal melting temperature", "components": [{"sample": [["Source:", "synthesized by the authors"], ["Purification:", "estimated by the compiler"], ["Purity:", "95 mass %"], ["Purity analysis:", "dried by vacuum heating"]], "idout": "ABWRLT", "mw": "386.55", "name": "1-((heptyloxy)methyl)pyridinium N-cyclohexylsulfamate", "formula": "C<SUB>19</SUB>H<SUB>34</SUB>N<SUB>2</SUB>O<SUB>4</SUB>S"}], "dhead": [["Normal melting temperature, K"]], "footer": "", "data": [[["259.05", "0.5"]]], "solvent": null, "expmeth": "DSC/DTA"}