{"constr": ["Pressure of 1 atm"], "ref": {"title": "Examining the structure and intermolecular forces of thiazolium-based ionic liquids", "full": "Castillo, C.; Chenard, E.; Zeller, M.; Hatab, N.; Fulvio, P. F.; Hillesheim, P. C. (2021) J. Mol. Liq. 327, 114800."}, "phases": ["Crystal", "Liquid"], "title": "Phase transition properties: Normal melting temperature", "components": [{"formula": "C<SUB>17</SUB>H<SUB>28</SUB>F<SUB>6</SUB>N<SUB>2</SUB>O<SUB>4</SUB>S<SUB>3</SUB>", "name": "3-dodecylthiazolium bis((trifluoromethyl)sulfonyl)amide", "idout": "ABypEg", "mw": "534.59", "sample": [["Source:", "synthesized by the authors"], ["Purification:", "NMR "], ["Purity:", "95 mass %"]]}], "dhead": [["Normal melting temperature, K"]], "footer": "", "data": [[["305.1", "5"]]], "solvent": null, "expmeth": "DSC/DTA"}