{"expmeth": "Visual observation", "solvent": null, "data": [[["340.1", "2"]]], "footer": "", "dhead": [["Normal melting temperature, K"]], "components": [{"name": "1-butyl-3-methylimidazolium chloride", "formula": "C<SUB>8</SUB>H<SUB>15</SUB>ClN<SUB>2</SUB>", "idout": "AAherF", "mw": "174.67", "sample": [["Source:", "synthesized by the authors"]]}], "title": "Phase transition properties: Normal melting temperature", "phases": ["Crystal", "Liquid"], "constr": ["Pressure of 1 atm"], "ref": {"full": "Wei, Y.; Zhang, Q.-G.; Liu, Y.; Li, X.; Lian, S.; Kang, Z. (2010) J. Chem. Eng. Data 55(7), 2616-2619.", "title": "Physicochemical Property Estimation of an Ionic Liquid Based on Glutamic Acid-BMIGlu"}}