{"components": [{"idout": "AAmDom", "mw": "197.97", "formula": "C<SUB>6</SUB>H<SUB>11</SUB>BF<SUB>4</SUB>N<SUB>2</SUB>", "name": "1-ethyl-3-methylimidazolium tetrafluoroborate", "sample": [["Source:", "synthesized by the authors"], ["Purification:", "Karl Fischer titration;ion-selective electrode"], ["Purity:", "0.005 water mass %;0.0001 halide impurity mass %(de-gassed by evacuation)"]]}], "title": "Phase transition properties: Normal melting temperature", "dhead": [["Normal melting temperature, K"]], "data": [[["286.1", "1"]]], "solvent": null, "footer": "", "expmeth": "DSC/DTA", "constr": ["Pressure of 1 atm"], "ref": {"title": "Physical and electrochemical properties of 1-alkyl-3-methylimidazolium tetrafluoroborate for electrolyte", "full": "Nishida, T.; Tashiro, Y.; Yamamoto, M. (2003) J. Fluorine Chem. 120, 135-141."}, "phases": ["Crystal", "Liquid"]}