{"title": "Phase transition properties: Normal melting temperature", "components": [{"sample": [["Source:", "synthesized by the authors"], ["Purification:", "NMR (proton)"], ["Purity:", "99 % (basis not specified)"]], "formula": "C<SUB>13</SUB>H<SUB>26</SUB>N<SUB>3</SUB>O<SUB>2</SUB>P", "name": "butyltriethylphosphonium 4-nitropyrazolide", "idout": "ABDNye", "mw": "287.34"}], "dhead": [["Normal melting temperature, K"]], "footer": "", "solvent": null, "data": [[["320", "320"]]], "expmeth": "DSC/DTA", "ref": {"full": "Fillion, J.; Xia, H.; DeSilva, M. A.; Quiroz-Guzman, M.; Brennecke, J. (2016) J. Chem. Eng. Data 61(8), 2897-2914.", "title": "Phase transitions, decomposition temperatures, viscosities and densities of phosphonium, ammonium and imidazolium ionic liquids with aprotic heterocyclic anions"}, "constr": ["Pressure of 1 atm"], "phases": ["Crystal", "Liquid"]}