{"ref": {"full": "Carreira, Ana R.F.; Rocha, Samuel N.; Silva, Francisca A. e; Sintra, Tania E.; Passos, Helena; Ventura, Sonia P.M.; Coutinho, Joao A.P. (2021) Fluid Phase Equilib. 542, 113091.", "title": "Amino-acid-based chiral ionic liquids characterization and application in aqueous biphasic systems"}, "constr": ["Pressure of 1 atm"], "phases": ["Crystal", "Liquid"], "title": "Phase transition properties: Normal melting temperature", "components": [{"sample": [["Source:", "synthesized by the authors"]], "mw": "415.67", "idout": "ABbwBA", "name": "tetrabutylammonium L-arginate", "formula": "C<SUB>22</SUB>H<SUB>49</SUB>N<SUB>5</SUB>O<SUB>2</SUB>"}], "dhead": [["Normal melting temperature, K"]], "footer": "", "solvent": null, "data": [[["352", "0"]]], "expmeth": "DSC/DTA"}