{"constr": ["Pressure of 1 atm"], "ref": {"title": "Tunable aryl alkyl ionic liquids (TAAILs) based on 1-aryl-3,5-dimethyl-1H-pyrazoles", "full": "Ozdemir, M. C.; Ozgun, B. (2017) J. Mol. Liq. 248, 314-321."}, "phases": ["Crystal", "Liquid"], "components": [{"sample": [["Source:", "synthesized by the authors"], ["Purification:", "estimated by the compiler"], ["Purity:", "98 mass %(crystallization from solution;dried by vacuum heating)"]], "name": "2,3,5-trimethyl-1-(4-nitrophenyl)-pyrazolium tetrafluoroborate", "formula": "C<SUB>12</SUB>H<SUB>14</SUB>BF<SUB>4</SUB>N<SUB>3</SUB>O<SUB>2</SUB>", "mw": "319.07", "idout": "ABJSsS"}], "title": "Phase transition properties: Normal melting temperature", "dhead": [["Normal melting temperature, K"]], "data": [[["439.65", "0.5"]]], "solvent": null, "footer": "", "expmeth": "DSC/DTA"}