{"title": "Phase transition properties: Normal melting temperature", "components": [{"sample": [["Source:", "synthesized by the authors"], ["Purification:", "estimated by the compiler"], ["Purity:", "98 mass %(dried by vacuum heating;solvent extraction)"]], "idout": "ABcZWI", "mw": "418.56", "formula": "C<SUB>21</SUB>H<SUB>30</SUB>N<SUB>4</SUB>O<SUB>3</SUB>S", "name": "1-decyl-3-methyl-2-(thiazol-4-yl)benzimidazolium nitrate"}], "dhead": [["Normal melting temperature, K"]], "footer": "", "solvent": null, "data": [[["342.1", "2"]]], "expmeth": "Visual observation", "constr": ["Pressure of 1 atm"], "ref": {"title": "Synthesis, characterization and in vitro antiproliferative evaluation of ionic liquids based on alkyl-substituted thiabendazolium", "full": "El Bourakadi, K.; Merghoub, N.; Hicham, G.; Mekhzoum, M. E. M.; Essassi, E. M.; Qaiss, A. e. k.; Bouhfid, R. (2019) J. Mol. Liq. 282, 63-69."}, "phases": ["Crystal", "Liquid"]}