{"ref": {"full": "Wachter, P.; Schreiner, C.; Schweiger, H.-G.; Gores, H. J. (2010) J. Chem. Thermodyn. 42(7), 900-903.", "title": "Determination of phase transition points of ionic liquids by combination of thermal analysis and conductivity measurements at very low heating and cooling rates"}, "constr": ["Pressure of 1 atm"], "phases": ["Metastable crystal", "Liquid"], "components": [{"formula": "C<SUB>8</SUB>H<SUB>11</SUB>F<SUB>6</SUB>N<SUB>3</SUB>O<SUB>4</SUB>S<SUB>2</SUB>", "name": "1-ethyl-3-methylimidazolium bis((trifluoromethyl)sulfonyl)imide", "idout": "ABXNZH", "mw": "391.30", "sample": [["Source:", "synthesized by the authors"], ["Initial purification:", "estimated by the compiler"], ["Initial purity:", "98 mass %"], ["Final purification:", "Karl Fischer titration"], ["Final purity:", "0.0021 water mass %(de-gassed by evacuation)"]]}], "title": "Phase transition properties: Normal melting temperature", "dhead": [["Normal melting temperature, K"]], "data": [[["256.7", "1"]]], "solvent": null, "footer": "", "expmeth": "from temp. dependence of electrical conductivity"}