{"components": [{"mw": "385.35", "idout": "ABWFcI", "name": "diethylmethylsulfonium bis[(trifluoromethyl)sulfonyl]imide", "formula": "C<SUB>7</SUB>H<SUB>13</SUB>F<SUB>6</SUB>NO<SUB>4</SUB>S<SUB>3</SUB>", "sample": [["Source:", "commercial source"], ["Initial purification:", "stated by supplier"], ["Initial purity:", "97 mass %"], ["Final purification:", "Karl Fischer titration"], ["Final purity:", "0.0361 water mass %(dried by vacuum heating)"]]}], "title": "Phase transition properties: Normal melting temperature", "dhead": [["Normal melting temperature, K"]], "data": [[["256.4", "0.4"]]], "solvent": null, "footer": "", "expmeth": "DSC/DTA", "ref": {"full": "Domanska, U.; Krolikowski, M.; Zawadzki, M.; Wroblewska, A. (2016) J. Chem. Thermodyn. 102, 357-366.", "title": "Phase equilibrium investigation with ionic liquids and selectivity in separation of 2-phenylethanol from water"}, "constr": ["Pressure of 1 atm"], "phases": ["Crystal 1", "Liquid"]}