{"expmeth": "Visual observation", "data": [[["314.15", "0.5"]]], "solvent": null, "footer": "", "dhead": [["Normal melting temperature, K"]], "components": [{"name": "1,1,3,3-tetramethylguanidinium trifluoromethanesulfonate", "formula": "C<SUB>6</SUB>H<SUB>14</SUB>F<SUB>3</SUB>N<SUB>3</SUB>O<SUB>3</SUB>S", "idout": "AAzAtb", "mw": "265.25", "sample": [["Purity analysis:", "unspecified"]]}], "title": "Phase transition properties: Normal melting temperature", "phases": ["Crystal", "Liquid"], "constr": ["Pressure of 1 atm"], "ref": {"full": "Gao, H.; Han, B.; Li, J.; Jiang, T.; Liu, Z.; Wu, W.; Chang, Y.; Zhang, J. (2004) Synth. Commun. 34(17), 3083-3089.", "title": "Preparation of Room-Temperature Ionic Liquids by Neutralization of 1,1,3,3-Tetramethylguanidine with Acids and their Use as Media for Mannich Reaction"}}