{"constr": ["Pressure of 1 atm"], "ref": {"full": "Pereiro, A. B.; Rodriguez, A.; Blesic, M.; Shimizu, K.; Canongia Lopes, J. N.; Rebelo, L. P. N. (2011) J. Chem. Eng. Data 56(12), 4356-4363.", "title": "Mixtures of Pyridine and Nicotine with Pyridinium-Based Ionic Liquids"}, "phases": ["Crystal", "Liquid"], "title": "Phase transition properties: Normal melting temperature", "components": [{"sample": [["Source:", "synthesized by others"], ["Purification:", "NMR (proton)"], ["Purity:", "99 mol %(dried by vacuum heating)"]], "mw": "382.07", "idout": "ABVYDf", "formula": "C<SUB>24</SUB>H<SUB>44</SUB>ClN", "name": "3-methyl-1-octadecylpyridinium chloride"}], "dhead": [["Normal melting temperature, K"]], "footer": "", "data": [[["386", "2.5"]]], "solvent": null, "expmeth": "Visual observation"}