{"title": "Phase transition properties: Normal melting temperature", "components": [{"idout": "AAsjdp", "mw": "232.33", "name": "1-butyl-1-methylpyrrolidinium tricyanomethanide", "formula": "C<SUB>13</SUB>H<SUB>20</SUB>N<SUB>4</SUB>", "sample": [["Source:", "commercial source"], ["Purification:", "stated by supplier"], ["Purity:", "98 mass %"], ["Purity analysis:", "de-gassed by evacuation;dried by vacuum heating"]]}], "dhead": [["Normal melting temperature, K"]], "footer": "", "data": [[["266.7", "1.1"]]], "solvent": null, "expmeth": "DSC/DTA", "ref": {"full": "Musial, M.; Wojnarowska, Z.; Cheng, S.; Ngai, K. L.; Paluch, M. (2019) J. Phys. Chem. C 123(36), 22089-22094.", "title": "Evidence of a Fundamental Mechanism Governing Conductivity Relaxation in Room-Temperature Ionic Liquid"}, "constr": ["Pressure of 1 atm"], "phases": ["Crystal", "Liquid"]}