{"phases": ["Metastable crystal", "Liquid"], "ref": {"full": "Aranowski, R.; Cichowska-Kopczynska, I.; Debski, B.; Jasinski, P. (2016) J. Mol. Liq. 221, 541-546.", "title": "Conductivity and viscosity changes of imidazolium ionic liquids induced by H2O and CO2"}, "constr": ["Pressure of 1 atm"], "expmeth": "Visual observation", "solvent": null, "data": [[["258.1", "1"]]], "footer": "", "dhead": [["Normal melting temperature, K"]], "components": [{"mw": "391.30", "idout": "ABXNZH", "name": "1-ethyl-3-methylimidazolium bis((trifluoromethyl)sulfonyl)imide", "formula": "C<SUB>8</SUB>H<SUB>11</SUB>F<SUB>6</SUB>N<SUB>3</SUB>O<SUB>4</SUB>S<SUB>2</SUB>", "sample": [["Source:", "commercial source"], ["Initial purification:", "stated by supplier"], ["Initial purity:", "99 mass %"], ["Final purification:", "Karl Fischer titration"], ["Final purity:", "0.09 water mass %(dried by vacuum heating)"]]}], "title": "Phase transition properties: Normal melting temperature"}