{"title": "Phase transition properties: Normal melting temperature", "components": [{"formula": "C<SUB>9</SUB>H<SUB>14</SUB>ClN", "name": "1-propyl-3-methylpyridinium chloride", "idout": "AAhABv", "mw": "171.67", "sample": [["Source:", "synthesized by the authors"]]}], "dhead": [["Normal melting temperature, K"]], "footer": "", "solvent": null, "data": [[["365.1", "5"]]], "expmeth": "Visual observation", "ref": {"full": "Sashina, E. S.; Kashirskii, D. A.; Janowska, G.; Zaborski, M. (2013) Thermochim. Acta 568, 185-8.", "title": "Thermal properties of 1-alkyl-3-methylpyridinium halide-based ionic  liquids"}, "constr": ["Pressure of 1 atm"], "phases": ["Crystal", "Liquid"]}