{"ref": {"full": "Thoppil, A. A.; Chennuri, B. K.; Gardas, R. L. (2020) J. Mol. Liq. 299, 112116.", "title": "Thermodynamics and micellization behavior of ethanolammonium carboxylate surface active ionic liquids in aqueous media"}, "constr": ["Pressure of 1 atm"], "phases": ["Crystal", "Liquid"], "title": "Phase transition properties: Normal melting temperature", "components": [{"mw": "337.50", "idout": "ABMvVT", "formula": "C<SUB>20</SUB>H<SUB>35</SUB>NO<SUB>3</SUB>", "name": "N-phenylethanolammonium laurate", "sample": [["Source:", "synthesized by the authors"], ["Purification:", "estimated by the compiler"], ["Purity:", "98 mass %(dried by vacuum heating)"]]}], "dhead": [["Normal melting temperature, K"]], "footer": "", "data": [[["313.1", "2"]]], "solvent": null, "expmeth": "DSC/DTA"}