{"expmeth": "DSC/DTA", "data": [[["371", "4"]]], "solvent": null, "footer": "", "dhead": [["Normal melting temperature, K"]], "components": [{"idout": "ACiwhY", "mw": "722.45", "name": "1-butyl-1-methylpyrrolidinium bis(nonafluorobutylsulfonyl)imide", "formula": "C<SUB>17</SUB>H<SUB>20</SUB>F<SUB>18</SUB>N<SUB>2</SUB>O<SUB>4</SUB>S<SUB>2</SUB>", "sample": [["Source:", "commercial source"], ["Initial purification:", "stated by supplier"], ["Initial purity:", "98 mass %"], ["Final purification:", "ion chromatography;Karl Fischer titration"], ["Final purity:", "0.13 halide impurity mol %;0.01 water mass %(dried by vacuum heating)"]]}], "title": "Phase transition properties: Normal melting temperature", "phases": ["Crystal", "Liquid"], "constr": ["Pressure of 1 atm"], "ref": {"title": "Fluorination effects on the thermodynamic, thermophysical and surface properties of ionic liquids", "full": "Vieira, N. S. M.; Luis, A.; Reis, P. M.; Carvalho, P. J.; Lopes-da-Silva, J. A.; Esperanca, J. M. S. S.; Araujo, J. M. M.; Rebelo, L. P. N.; Freire, M. G.; Pereiro, A. B. (2016) J. Chem. Thermodyn. 97, 354-361."}}