{"ref": {"title": "Phase transitions, decomposition temperatures, viscosities and densities of phosphonium, ammonium and imidazolium ionic liquids with aprotic heterocyclic anions", "full": "Fillion, J.; Xia, H.; DeSilva, M. A.; Quiroz-Guzman, M.; Brennecke, J. (2016) J. Chem. Eng. Data 61(8), 2897-2914."}, "constr": ["Pressure of 1 atm"], "phases": ["Crystal", "Liquid"], "title": "Phase transition properties: Normal melting temperature", "components": [{"idout": "ABBRLn", "mw": "277.33", "formula": "C<SUB>13</SUB>H<SUB>19</SUB>N<SUB>5</SUB>O<SUB>2</SUB>", "name": "1-cyclopentyl-2,3-dimethylimidazolium 4-nitropyrazolide", "sample": [["Source:", "synthesized by the authors"], ["Purification:", "NMR (proton)"], ["Purity:", "97 % (basis not specified)"]]}], "dhead": [["Normal melting temperature, K"]], "footer": "", "solvent": null, "data": [[["365", "2"]]], "expmeth": "DSC/DTA"}