{"dhead": [["Normal melting temperature, K"]], "components": [{"mw": "366.10", "idout": "ABSVgK", "formula": "C<SUB>11</SUB>H<SUB>18</SUB>Br<SUB>2</SUB>N<SUB>4</SUB>", "name": "1,3-bis[3-methylimidazolium-1-yl]propane dibromide", "sample": [["Source:", "synthesized by the authors"], ["Purification:", "estimated by the compiler;Karl Fischer titration"], ["Purity:", "99 mass %;0.04 water mass %(crystallization from solution;dried by vacuum heating;solvent extraction)"]]}], "title": "Phase transition properties: Normal melting temperature", "expmeth": "DSC/DTA", "data": [[["445.9", "1.1"]]], "solvent": null, "footer": "", "ref": {"title": "Thermophysical properties of dicationic imidazolium-based ionic compounds for thermal storage", "full": "Zhang, H.; Xu, W.; Liu, J.; Li, M.; Yang, B. (2019) J. Mol. Liq. 282, 474-483."}, "constr": ["Pressure of 1 atm"], "phases": ["Crystal", "Liquid"]}