{"dhead": [["Normal melting temperature, K"]], "components": [{"idout": "ABEWop", "mw": "293.41", "formula": "C<SUB>17</SUB>H<SUB>27</SUB>NO<SUB>3</SUB>", "name": "(S)-1-cyclohexylethan-1-aminium (S)-2-methoxy-2-phenylacetate", "sample": [["Source:", "synthesized by the authors"], ["Purification:", "estimation"], ["Purity:", "98 % (basis not specified)"]]}], "title": "Phase transition properties: Normal melting temperature", "expmeth": "DSC/DTA", "data": [[["436.05", "0.5"]]], "solvent": null, "footer": "", "constr": ["Pressure of 1 atm"], "ref": {"full": "Zodge, A. D.; Bombicz, P.; Szekely, E.; Pokol, G.; Madarasz, J. (2017) Thermochim. Acta 648, 23-31.", "title": "Structural, analytical and DSC references to resolution of 2-methoxy-2-phenylacetic acid with chiral 1-cyclohexylethylamines through gas-antisolvent precipitation"}, "phases": ["Crystal 1", "Liquid"]}