{"dhead": [["Normal melting temperature, K"]], "components": [{"idout": "ABjzZa", "mw": "457.58", "name": "(2-decanoyloxyethyl)dimethylpentyloxymethylammonium trifluoroacetate", "formula": "C<SUB>22</SUB>H<SUB>42</SUB>F<SUB>3</SUB>NO<SUB>5</SUB>", "sample": [["Source:", "synthesized by the authors"], ["Purification:", "Karl Fischer titration"], ["Purity:", "0.018 water mass %(chemical reagent treatment;dried by vacuum heating)"]]}], "title": "Phase transition properties: Normal melting temperature", "expmeth": "DSC/DTA", "solvent": null, "data": [[["279.8", "0.5"]]], "footer": "", "constr": ["Pressure of 1 atm"], "ref": {"full": "Domanska, U.; Zolek-Tryznowska, Z.; Krolikowski, M. (2007) J. Chem. Eng. Data 52(5), 1872-1880.", "title": "Thermodynamic Phase Behavior of Ionic Liquids"}, "phases": ["Crystal 1", "Liquid"]}