{"title": "Phase transition properties: Normal melting temperature", "components": [{"formula": "C<SUB>8</SUB>H<SUB>16</SUB>F<SUB>6</SUB>N<SUB>2</SUB>O<SUB>5</SUB>S<SUB>2</SUB>", "name": "2-methoxy-N,N,N-trimethylethan-1-aminium bis((trifluoromethyl)sulfonyl)amide", "mw": "398.34", "idout": "ABYfOp", "sample": [["Source:", "synthesized by the authors"], ["Purification:", "estimation"], ["Purity:", "98 mass %"]]}], "dhead": [["Normal melting temperature, K"]], "footer": "", "data": [[["310.1", "1"]]], "solvent": null, "expmeth": "DSC/DTA", "ref": {"full": "Zhou, Z.-B.; Matsumoto, H.; Tatsumi, K. (2005) Chem. Eur. J. 11, 752-766.", "title": "Low-Melting, Low-Viscous, Hydrophobic Ionic Liquids: Aliphatic Quaternary Ammonium Salts with Perfluoroalkyltrifluoroborates"}, "constr": ["Pressure of 1 atm"], "phases": ["Crystal", "Liquid"]}