{"dhead": [["Normal melting temperature, K"]], "components": [{"idout": "ABoepW", "mw": "481.43", "formula": "C<SUB>15</SUB>H<SUB>17</SUB>F<SUB>6</SUB>N<SUB>3</SUB>O<SUB>4</SUB>S<SUB>2</SUB>", "name": "1-methyl-3-(3-phenylpropyl)-1H-imidazolium 1,1,1-trifluoro-N-[(trifluoromethyl)sulfonyl]methanesulfonamide", "sample": [["Source:", "synthesized by the authors"], ["Purification:", "chemical analysis"], ["Purity:", "99 mass %(dried by vacuum heating)"]]}], "title": "Phase transition properties: Normal melting temperature", "expmeth": "DSC/DTA", "data": [[["321.1", "4"]]], "solvent": null, "footer": "", "ref": {"full": "Dzyuba, S. V.; Bartsch, R. A. (2002) ChemPhysChem 3, 161-166.", "title": "Influence of Structural Variations in 1-Alkyl(aralkyl)-3-Methylimidazolium Hexafluorophosphates and Bis(trifluromethylsulfonyl)imides on Physical Properties of the Ionic Liquids"}, "constr": ["Pressure of 1 atm"], "phases": ["Crystal", "Liquid"]}