{"constr": ["Pressure of 1 atm"], "ref": {"title": "Solubility of Benzothiazolium Ionic Liquids in Water and in Furfural", "full": "Jia, C.; Cao, Y.; Zuo, T.; Hu, R.; Yao, T.; Song, H. (2015) J. Chem. Eng. Data 60(4), 999-1005."}, "phases": ["Crystal", "Liquid"], "title": "Phase transition properties: Normal melting temperature", "components": [{"mw": "393.37", "idout": "ABXhhH", "formula": "C<SUB>15</SUB>H<SUB>22</SUB>F<SUB>6</SUB>NPS", "name": "N-octylbenzothiazolium hexafluorophosphate", "sample": [["Source:", "synthesized by the authors"]]}], "dhead": [["Normal melting temperature, K"]], "footer": "", "data": [[["334.22", "0.5"]]], "solvent": null, "expmeth": "DSC/DTA"}