{"constr": ["Pressure of 1 atm"], "ref": {"title": "Phase equilibria study on bromide-based ionic liquids with glycols and sulfolane. Experimental data and correlation", "full": "Krolikowski, Marek; Krolikowska, Marta; Lipinska, Aleksandra (2018) J. Chem. Thermodyn. 122, 142-153."}, "phases": ["Crystal", "Liquid"], "components": [{"idout": "AAoVDR", "mw": "210.12", "formula": "C<SUB>7</SUB>H<SUB>16</SUB>BrNO", "name": "N-ethyl-N-methylmorpholinium bromide", "sample": [["Source:", "synthesized by the authors"], ["Initial purification:", "NMR (proton)"], ["Initial purity:", "95 mass %"], ["Final purification:", "Karl Fischer titration"], ["Final purity:", "0.0900 water mass %(dried by vacuum heating)"]]}], "title": "Phase transition properties: Normal melting temperature", "dhead": [["Normal melting temperature, K"]], "data": [[["445.6", "5.1"]]], "solvent": null, "footer": "", "expmeth": "DSC/DTA"}