{"ref": {"title": "Thermal Properties of Alkali Bis(fluorosulfonyl)amides and Their Binary Mixtures", "full": "Kubota, K.; Nohira, T.; Hagiwara, R. (2010) J. Chem. Eng. Data 55(9), 3142-3146."}, "constr": ["Pressure of 1 atm"], "phases": ["Crystal", "Liquid"], "dhead": [["Normal melting temperature, K"]], "components": [{"formula": "F<SUB>2</SUB>NO<SUB>4</SUB>RbS<SUB>2</SUB>", "name": "rubidium bis(fluorosulfonyl)amide", "idout": "AAzDXE", "mw": "265.59", "sample": [["Source:", "synthesized by the authors"], ["Purification:", "estimated by the compiler"], ["Purity:", "99 mol %(crystallization from solution)"]]}], "title": "Phase transition properties: Normal melting temperature", "expmeth": "DSC/DTA", "data": [[["368", "4"]]], "solvent": null, "footer": ""}