{"title": "Phase transition properties: Normal melting temperature", "components": [{"name": "1-methyl-3-(4'-vinylbenzyl)imidazolium bis(trifluoromethanesulfonyl)amide", "formula": "C<SUB>15</SUB>H<SUB>15</SUB>F<SUB>6</SUB>N<SUB>3</SUB>O<SUB>4</SUB>S<SUB>2</SUB>", "idout": "ABoKAL", "mw": "479.41", "sample": [["Source:", "synthesized by the authors"], ["Purification:", "ion chromatography;Karl Fischer titration"], ["Purity:", "99 mass %;0.03 water mass %(dried by vacuum heating;solvent extraction)"]]}], "dhead": [["Normal melting temperature, K"]], "footer": "", "data": [[["311.9", "1.1"]]], "solvent": null, "expmeth": "DSC/DTA", "ref": {"title": "Synthesis and characterization of potentially polymerizable amine-derived ionic liquids bearing 4-vinylbenzyl group", "full": "Zajac, A.; Szpecht, A.; Zielinski, D.; Rola, K.; Hoppe, J.; Komorowska, K.; Smiglak, M. (2019) J. Mol. Liq. 283, 427-439."}, "constr": ["Pressure of 1 atm"], "phases": ["Crystal", "Liquid"]}