{"ref": {"full": "Zhou, Z.-B.; Matsumoto, H.; Tatsumi, K. (2005) Chem. Eur. J. 11, 752-766.", "title": "Low-Melting, Low-Viscous, Hydrophobic Ionic Liquids: Aliphatic Quaternary Ammonium Salts with Perfluoroalkyltrifluoroborates"}, "constr": ["Pressure of 1 atm"], "phases": ["Crystal", "Liquid"], "title": "Phase transition properties: Normal melting temperature", "components": [{"sample": [["Source:", "synthesized by the authors"], ["Purification:", "estimation"], ["Purity:", "98 mass %"]], "mw": "247.08", "idout": "AAvaLy", "name": "N,N,N-triethyl-2-methoxyethan-1-aminium tetrafluoroborate", "formula": "C<SUB>9</SUB>H<SUB>22</SUB>BF<SUB>4</SUB>NO"}], "dhead": [["Normal melting temperature, K"]], "footer": "", "data": [[["329.1", "1"]]], "solvent": null, "expmeth": "DSC/DTA"}