{"dhead": [["Normal melting temperature, K"]], "components": [{"name": "1-(4-methylphenyl)-2,3,5-trimethylpyrazolium hexafluorophosphate", "formula": "C<SUB>13</SUB>H<SUB>17</SUB>F<SUB>6</SUB>N<SUB>2</SUB>P", "idout": "ABOeyq", "mw": "346.26", "sample": [["Source:", "synthesized by the authors"], ["Purification:", "estimated by the compiler"], ["Purity:", "98 mass %(crystallization from solution;dried by vacuum heating)"]]}], "title": "Phase transition properties: Normal melting temperature", "expmeth": "DSC/DTA", "data": [[["411.45", "0.5"]]], "solvent": null, "footer": "", "constr": ["Pressure of 1 atm"], "ref": {"full": "Ozdemir, M. C.; Ozgun, B. (2017) J. Mol. Liq. 248, 314-321.", "title": "Tunable aryl alkyl ionic liquids (TAAILs) based on 1-aryl-3,5-dimethyl-1H-pyrazoles"}, "phases": ["Crystal", "Liquid"]}