{"dhead": [["Normal melting temperature, K"]], "components": [{"name": "1-hexyl-3-methylimidazolium bis[(trifluoromethyl)sulfonyl]imide", "formula": "C<SUB>12</SUB>H<SUB>19</SUB>F<SUB>6</SUB>N<SUB>3</SUB>O<SUB>4</SUB>S<SUB>2</SUB>", "mw": "447.41", "idout": "ABiCtA", "sample": [["Source:", "synthesized by others"], ["Purification:", "fraction melting in an adiabatic calorimeter"], ["Purity:", "99.76 mol %(dried by vacuum heating)"]]}], "title": "Phase transition properties: Normal melting temperature", "expmeth": "Visual observation", "data": [[["272", "0.4"]]], "solvent": null, "footer": "", "ref": {"full": "Shevelyova, M. P.; Zaitsau, D. H.; Paulechka, Y. U.; Blokhin, A. V.; Kabo, G. J. (2007) J. Chem. Eng. Data 52(4), 1360-1365.", "title": "Solid-Liquid Equilibrium and Activity Coefficients for Caprolactam + 1-Hexyl-3-methylimidazolium Bis(trifluoromethylsulfonyl)imide and Cyclohexanone Oxime + 1-Hexyl-3-methylimidazolium Bis(trifluoromethylsulfonyl)imide"}, "constr": ["Pressure of 1 atm"], "phases": ["Crystal", "Liquid"]}