{"title": "Phase transition properties: Normal melting temperature", "components": [{"formula": "C<SUB>10</SUB>H<SUB>18</SUB>F<SUB>6</SUB>N<SUB>2</SUB>O<SUB>4</SUB>S<SUB>2</SUB>", "name": "1-methyl-1-propylpyrrolidinium bis[(trifluoromethyl)sulfonyl]imide", "idout": "ABabds", "mw": "408.37", "sample": [["Source:", "commercial source"], ["Initial purification:", "stated by supplier"], ["Initial purity:", "99.5 mass %"], ["Final purification:", "Karl Fischer titration"], ["Final purity:", "0.0076 water mass %"]]}], "dhead": [["Normal melting temperature, K"]], "footer": "", "data": [[["282.1", "1.1"]]], "solvent": null, "expmeth": "DSC/DTA", "constr": ["Pressure of 1 atm"], "ref": {"full": "Huang, Q.; Loureno, T. C.; Costa, L. T.; Zhang, Y.; Maginn, E. J.; Gurkan, B. (2019) J. Phys. Chem. B 123(2), 516-527.", "title": "Solvation Structure and Dynamics of Li+ in Ternary Ionic Liquid-Lithium Salt Electrolytes"}, "phases": ["Crystal", "Liquid"]}