{"title": "Phase transition properties: Normal melting temperature", "components": [{"sample": [["Source:", "synthesized by the authors"]], "idout": "ABvRth", "mw": "516.56", "formula": "C<SUB>18</SUB>H<SUB>30</SUB>F<SUB>6</SUB>N<SUB>2</SUB>O<SUB>4</SUB>S<SUB>2</SUB>", "name": "N-adamantyl-N,N-dimethyl-N-butylammonium bis(trifluoromethylsulfonyl)imide"}], "dhead": [["Normal melting temperature, K"]], "footer": "", "data": [[["326.8", "5"]]], "solvent": null, "expmeth": "DSC/DTA", "constr": ["Pressure of 1 atm"], "ref": {"title": "Characterization and solution properties of adamantane-containing quaternary-ammonium-salt-type amphiphilic ionic liquids", "full": "Kawai, R.; Yada, S.; Yoshimura, T. (2019) J. Mol. Liq. 294, 111586."}, "phases": ["Crystal", "Liquid"]}