{"ref": {"title": "Solubility and Thermodynamic Properties of Ammonium-Based Gemini Ionic Liquids in Pure Solvents", "full": "Yang, X.; Wang, J.; Fang, Y. (2020) J. Solution Chem. 49(2), 145-165."}, "constr": ["Pressure of 1 atm"], "phases": ["Crystal", "Liquid"], "components": [{"sample": [["Source:", "synthesized by the authors"], ["Purification:", "HPLC;Karl Fischer titration"], ["Purity:", "99.5 mass %;0.0042 water mass %(crystallization from solution;de-gassed by evacuation;dried by vacuum heating)"]], "idout": "ACqOqz", "mw": "760.64", "formula": "C<SUB>16</SUB>H<SUB>28</SUB>F<SUB>12</SUB>N<SUB>4</SUB>O<SUB>8</SUB>S<SUB>4</SUB>", "name": "1-methyl-1-(3-(trimethylammonio)propyl)piperidin-1-ium bis((trifluoromethyl)sulfonyl)amide"}], "title": "Phase transition properties: Normal melting temperature", "dhead": [["Normal melting temperature, K"]], "solvent": null, "data": [[["451.01", "0.41"]]], "footer": "", "expmeth": "DSC/DTA"}