{"constr": ["Pressure of 1 atm"], "ref": {"title": "Thermodynamic properties of the N-butylisoquinolinium bis(trifluoromethylsulfonyl)imide", "full": "Domanska, U.; Zawadzki, M. (2011) J. Chem. Thermodyn. 43(6), 989-995."}, "phases": ["Crystal", "Liquid"], "components": [{"name": "2-butylisoquinolinium bis[(trifluoromethyl)sulfonyl]amide", "formula": "C<SUB>15</SUB>H<SUB>16</SUB>F<SUB>6</SUB>N<SUB>2</SUB>O<SUB>4</SUB>S<SUB>2</SUB>", "idout": "ABlkcz", "mw": "466.41", "sample": [["Source:", "synthesized by the authors"], ["Purification:", "estimated by the compiler;Karl Fischer titration"], ["Purity:", "96 mass %;0.029 water mass %(de-gassed by evacuation;dried by vacuum heating)"]]}], "title": "Phase transition properties: Normal melting temperature", "dhead": [["Normal melting temperature, K"]], "data": [[["321", "0.39"]]], "solvent": null, "footer": "", "expmeth": "DSC/DTA"}