{"ref": {"title": "Synthesis and physical properties of tris(dialkylamino)cyclopropenium bistriflamide ionic liquids", "full": "Walst, K. J.; Yunis, R.; Bayley, P. M.; MacFarlane, D. R.; Ward, C. J.; Wang, R.; Curnow, O. J. (2015) RSC Adv. 5(49), 39565-39579."}, "constr": ["Pressure of 1 atm"], "phases": ["Crystal", "Liquid"], "components": [{"idout": "ABvlDB", "mw": "518.53", "formula": "C<SUB>16</SUB>H<SUB>28</SUB>F<SUB>6</SUB>N<SUB>4</SUB>O<SUB>4</SUB>S<SUB>2</SUB>", "name": "bis(dimethylamino)(hexylmethylamino)cyclopropenium bis(trifluoromethanesulfonyl)amide", "sample": [["Source:", "synthesized by the authors"], ["Purification:", "estimated by the compiler;Karl Fischer titration;ion-selective electrode"], ["Purity:", "98 mass %;0.0460 water mass %;0.0080 halide impurity mass %(dried by vacuum heating;solvent extraction)"]]}], "title": "Phase transition properties: Normal melting temperature", "dhead": [["Normal melting temperature, K"]], "data": [[["259.1", "2"]]], "solvent": null, "footer": "", "expmeth": "DSC/DTA"}