{"title": "Phase transition properties: Normal melting temperature", "components": [{"sample": [["Source:", "synthesized by the authors"], ["Purification:", "estimation"], ["Purity:", "98 mass %(dried by vacuum heating)"]], "formula": "C<SUB>17</SUB>H<SUB>36</SUB>ClNO<SUB>6</SUB>", "name": "2-(dodecyloxy)-N,N,N-trimethyl-2-oxoethan-1-aminium perchlorate", "mw": "385.93", "idout": "ABWLcy"}], "dhead": [["Normal melting temperature, K"]], "footer": "", "solvent": null, "data": [[["357.1", "0"]]], "expmeth": "DSC/DTA", "ref": {"title": "Ionic liquids derived from esters of Glycine Betaine: Synthesis and characterization", "full": "De Gaetano, Y.; Mohamadou, A.; Boudesocque, S.; Hubert, J.; Plantier-Royon, R.; Dupont, L. (2015) J. Mol. Liq. 207, 60-66."}, "constr": ["Pressure of 1 atm"], "phases": ["Crystal", "Liquid"]}