{"ref": {"title": "Low-Melting, Low-Viscous, Hydrophobic Ionic Liquids: Aliphatic Quaternary Ammonium Salts with Perfluoroalkyltrifluoroborates", "full": "Zhou, Z.-B.; Matsumoto, H.; Tatsumi, K. (2005) Chem. Eur. J. 11, 752-766."}, "constr": ["Pressure of 1 atm"], "phases": ["Crystal 1", "Liquid"], "components": [{"sample": [["Source:", "synthesized by the authors"], ["Purification:", "estimation"], ["Purity:", "98 mass %"]], "idout": "AAxCjP", "mw": "255.01", "formula": "C<SUB>7</SUB>H<SUB>16</SUB>BF<SUB>6</SUB>NO", "name": "2-methoxy-N,N,N-trimethylethan-1-aminium trifluoro(trifluoromethyl)borate"}], "title": "Phase transition properties: Normal melting temperature", "dhead": [["Normal melting temperature, K"]], "data": [[["350.1", "1"]]], "solvent": null, "footer": "", "expmeth": "DSC/DTA"}