{"ref": {"title": "Phase behaviour and heat capacities of 1-butyl-1-methylpyrrolidinium-based ionic liquids with fluoro-sulfonate anions", "full": "Stejfa, V.; Rohlicek, J.; Cervinka, C. (2022) J. Ionic Liq. 2(1), 100016."}, "constr": ["Pressure of 1 atm"], "phases": ["Crystal 1", "Liquid"], "dhead": [["Normal melting temperature, K"]], "components": [{"formula": "C<SUB>10</SUB>H<SUB>20</SUB>F<SUB>3</SUB>NO<SUB>3</SUB>S", "name": "1-butyl-1-methylpyrrolidinium trifluoromethanesulfonate", "idout": "ABEBwg", "mw": "291.33", "sample": [["Source:", "commercial source"], ["Initial purification:", "stated by supplier"], ["Initial purity:", "99.9 mass %"], ["Final purification:", "DSC;Karl Fischer titration"], ["Final purity:", "99.89 mol %;0.04 water mass %(dried by vacuum heating)"]]}], "title": "Phase transition properties: Normal melting temperature", "expmeth": "DSC/DTA", "data": [[["279.1", "0.7"]]], "solvent": null, "footer": ""}