{"phases": ["Crystal", "Liquid"], "ref": {"full": "Pernak, J.; Wasinski, K.; Praczyk, T.; Nawrot, J.; Cieniecka-Roslonkiewicz, A.; Walkiewicz, F.; Materna, K. (2012) Sci. China Chem. 55(8), 1532-1541.", "title": "Sweet ionic liquids-cyclamates: Synthesis, properties, and application as feeding deterrents"}, "constr": ["Pressure of 1 atm"], "expmeth": "DSC/DTA", "data": [[["305.65", "0.5"]]], "solvent": null, "footer": "", "dhead": [["Normal melting temperature, K"]], "components": [{"idout": "ABjqYG", "mw": "456.69", "formula": "C<SUB>24</SUB>H<SUB>44</SUB>N<SUB>2</SUB>O<SUB>4</SUB>S", "name": "1-((dodecyloxy)methyl)pyridinium N-cyclohexylsulfamate", "sample": [["Source:", "synthesized by the authors"], ["Purity:", "96 mass %"], ["Purity analysis:", "dried by vacuum heating"]]}], "title": "Phase transition properties: Normal melting temperature"}