{"title": "Phase transition properties: Normal melting temperature", "components": [{"sample": [["Source:", "synthesized by the authors"], ["Purification:", "estimated by the compiler"], ["Purity:", "97 % (basis not specified)(dried by oven heating)"]], "name": "1-ethyl-3-methylimidazolium bis((trifluoromethyl)sulfonyl)imide", "formula": "C<SUB>8</SUB>H<SUB>11</SUB>F<SUB>6</SUB>N<SUB>3</SUB>O<SUB>4</SUB>S<SUB>2</SUB>", "mw": "391.30", "idout": "ABXNZH"}], "dhead": [["Normal melting temperature, K"]], "footer": "", "solvent": null, "data": [[["258.1", "2"]]], "expmeth": "DSC/DTA", "constr": ["Pressure of 1 atm"], "ref": {"full": "Ngo, H. L.; LeCompte, K.; Hargens, L.; McEwen, A. B. (2000) Thermochim. Acta 357-358, 97-102.", "title": "Thermal properties of imidazolium ionic liquids"}, "phases": ["Metastable crystal", "Liquid"]}