{"dhead": [["Normal melting temperature, K"]], "components": [{"idout": "AAcKZa", "mw": "146.62", "name": "1-ethyl-3-methylimidazolium chloride", "formula": "C<SUB>6</SUB>H<SUB>11</SUB>ClN<SUB>2</SUB>", "sample": [["Source:", "synthesized by the authors"], ["Purification:", "estimated by the compiler"], ["Purity:", "97 % (basis not specified)(dried by oven heating)"]]}], "title": "Phase transition properties: Normal melting temperature", "expmeth": "DSC/DTA", "solvent": null, "data": [[["362.1", "2"]]], "footer": "", "constr": ["Pressure of 1 atm"], "ref": {"title": "Thermal properties of imidazolium ionic liquids", "full": "Ngo, H. L.; LeCompte, K.; Hargens, L.; McEwen, A. B. (2000) Thermochim. Acta 357-358, 97-102."}, "phases": ["Crystal", "Liquid"]}