{"constr": ["Pressure of 1 atm"], "ref": {"title": "Alkali Dinitramide Salts. Part 1: Synthesis and Characterization", "full": "Berger, B.; Bircher, H. (2005) Propellants Explos. Pyrotech. 30(3), 184-190."}, "phases": ["Crystal", "Liquid"], "title": "Phase transition properties: Normal melting temperature", "components": [{"sample": [["Source:", "synthesized by the authors"], ["Purity analysis:", "crystallization from solution"]], "idout": "AAkqeJ", "mw": "191.48", "name": "rubidium dinitramide", "formula": "N<SUB>3</SUB>O<SUB>4</SUB>Rb"}], "dhead": [["Normal melting temperature, K"]], "footer": "", "data": [[["379.1", "1"]]], "solvent": null, "expmeth": "DSC/DTA"}