{"constr": ["Pressure of 1 atm"], "ref": {"title": "Apparent Molal Volumes of Phosphonium Halides at 15, 25 and 35 degC", "full": "Takaizumi, K.; Wakabayashi, T. (1980) J. Solution Chem. 9(11), 809-818."}, "phases": ["Crystal", "Liquid"], "title": "Phase transition properties: Normal melting temperature", "components": [{"sample": [["Source:", "synthesized by the authors"], ["Purification:", "chemical analysis"], ["Purity:", "99.7 mass %"]], "idout": "ABNNVs", "mw": "339.34", "name": "tetrabutylphosphonium bromide", "formula": "C<SUB>16</SUB>H<SUB>36</SUB>BrP"}], "dhead": [["Normal melting temperature, K"]], "footer": "", "data": [[["378.65", "0.5"]]], "solvent": null, "expmeth": "Visual observation"}