{"components": [{"idout": "ABUomC", "mw": "378.48", "formula": "C<SUB>20</SUB>H<SUB>44</SUB>BrN", "name": "tetrapentylammonium bromide", "sample": [["Source:", "commercial source"]]}], "title": "Phase transition properties: Normal melting temperature", "dhead": [["Normal melting temperature, K"]], "data": [[["376.15", "0.5"]]], "solvent": null, "footer": "", "expmeth": false, "ref": {"title": "Fusion properties of some ionic quaternary ammonium compounds", "full": "Coker, T. G.; Ambrose, J.; Janz, G. J. (1970) J. Am. Chem. Soc. 92(18), 5293-5297."}, "constr": ["Pressure of 1 atm"], "phases": ["Crystal", "Liquid"]}