{"ref": {"full": "Sedov, Igor A.; Magsumov, Timur I. (2022) J. Chem. Thermodyn. 170, 106779.", "title": "Solvation properties of protic ionic liquids 2-methoxyethylammonium nitrate, propylammonium hydrogen sulfate, and butylammonium hydrogen sulfate"}, "constr": ["Pressure of 1 atm"], "phases": ["Crystal", "Liquid"], "title": "Phase transition properties: Normal melting temperature", "components": [{"sample": [["Source:", "synthesized by the authors"], ["Purification:", "chemical analysis;Karl Fischer titration"], ["Purity:", "99 mass %;0.16 water mass %(dried by vacuum heating)"]], "mw": "138.12", "idout": "AAadLM", "formula": "C<SUB>3</SUB>H<SUB>10</SUB>N<SUB>2</SUB>O<SUB>4</SUB>", "name": "2-methoxyethylammonium nitrate"}], "dhead": [["Normal melting temperature, K"]], "footer": "", "solvent": null, "data": [[["307", "2"]]], "expmeth": "DSC/DTA"}