{"constr": ["Pressure of 1 atm"], "ref": {"full": "Domanska, U.; Krolikowski, M.; Pobudkowska, A.; Letcher, T. M. (2009) J. Chem. Eng. Data 54(5), 1435-1441.", "title": "Phase Equilibria Study of the Binary Systems (N-Butyl-4-methylpyridinium Tosylate Ionic Liquid + Organic Solvent, or Water)"}, "phases": ["Crystal", "Liquid"], "components": [{"mw": "321.44", "idout": "ABJqRL", "name": "N-butyl-4-methylpyridinium tosylate", "formula": "C<SUB>17</SUB>H<SUB>23</SUB>NO<SUB>3</SUB>S", "sample": [["Source:", "synthesized by others"], ["Initial purification:", "stated by supplier"], ["Initial purity:", "98 mol %"], ["Final purification:", "Karl Fischer titration"], ["Final purity:", "0.023 water mass %"]]}], "title": "Phase transition properties: Normal melting temperature", "dhead": [["Normal melting temperature, K"]], "solvent": null, "data": [[["324.86", "0.39"]]], "footer": "", "expmeth": "DSC/DTA"}