{"ref": {"title": "Energetic Ionic Liquids from Azido Derivatives of 1,2,4-Triazole", "full": "Xue, H.; Shreeve, J. (2005) Adv. Mater. Res. 17, 2142-2146."}, "constr": ["Pressure of 1 atm"], "phases": ["Crystal", "Liquid"], "components": [{"mw": "201.15", "idout": "AAmjQu", "formula": "C<SUB>4</SUB>H<SUB>7</SUB>N<SUB>7</SUB>O<SUB>3</SUB>", "name": "1-(2-azidoethyl)-1H-1,2,4-triazol-1-ium nitrate", "sample": [["Source:", "synthesized by the authors"], ["Purification:", "estimated by the compiler"], ["Purity:", "99 % (basis not specified)"]]}], "title": "Phase transition properties: Normal melting temperature", "dhead": [["Normal melting temperature, K"]], "data": [[["372.1", "1"]]], "solvent": null, "footer": "", "expmeth": "DSC/DTA"}