{"title": "Phase transition properties: Normal melting temperature", "components": [{"sample": [["Source:", "synthesized by the authors"], ["Purification:", "estimated by the compiler"], ["Purity:", "97 % (basis not specified)(dried by oven heating)"]], "idout": "AAkmTS", "mw": "191.07", "name": "1-ethyl-3-methylimidazolium bromide", "formula": "C<SUB>6</SUB>H<SUB>11</SUB>BrN<SUB>2</SUB>"}], "dhead": [["Normal melting temperature, K"]], "footer": "", "solvent": null, "data": [[["352.1", "2"]]], "expmeth": "DSC/DTA", "constr": ["Pressure of 1 atm"], "ref": {"title": "Thermal properties of imidazolium ionic liquids", "full": "Ngo, H. L.; LeCompte, K.; Hargens, L.; McEwen, A. B. (2000) Thermochim. Acta 357-358, 97-102."}, "phases": ["Crystal", "Liquid"]}