{"title": "Phase transition properties: Normal melting temperature", "components": [{"sample": [["Source:", "synthesized by the authors"], ["Purification:", "estimated by the compiler"], ["Purity:", "97 % (basis not specified)(dried by oven heating)"]], "idout": "ABqZuM", "mw": "491.32", "formula": "C<SUB>10</SUB>H<SUB>11</SUB>F<SUB>10</SUB>N<SUB>3</SUB>O<SUB>4</SUB>S<SUB>2</SUB>", "name": "1-ethyl-3-methylimidazolium 1,1,2,2,2-pentafluoro-N-[(pentafluoroethyl)sulfonyl]ethanesulfonamide"}], "dhead": [["Normal melting temperature, K"]], "footer": "", "data": [[["272.1", "2"]]], "solvent": null, "expmeth": "DSC/DTA", "ref": {"title": "Thermal properties of imidazolium ionic liquids", "full": "Ngo, H. L.; LeCompte, K.; Hargens, L.; McEwen, A. B. (2000) Thermochim. Acta 357-358, 97-102."}, "constr": ["Pressure of 1 atm"], "phases": ["Crystal", "Liquid"]}