{"components": [{"sample": [["Source:", "synthesized by the authors"], ["Purification:", "NMR (proton)"], ["Purity:", "98 mass %"], ["Purity analysis:", "dried by vacuum heating"]], "mw": "229.07", "idout": "AAsCNC", "name": "1-butyl-1-methylpyrrolidinium tetrafluoroborate", "formula": "C<SUB>9</SUB>H<SUB>20</SUB>BF<SUB>4</SUB>N"}], "title": "Phase transition properties: Normal melting temperature", "dhead": [["Normal melting temperature, K"]], "data": [[["425", "2"]]], "solvent": null, "footer": "", "expmeth": "DSC/DTA", "ref": {"title": "Eutectic mixtures of pyrrolidinium-based ionic liquids", "full": "Stolarska, O.; Rodriguez, H.; Smiglak, M. (2016) Fluid Phase Equilib. 408, 1-9."}, "constr": ["Pressure of 1 atm"], "phases": ["Crystal", "Liquid"]}