{"constr": ["Pressure of 1 atm"], "ref": {"full": "Pereiro, A. B.; Rodriguez, A.; Blesic, M.; Shimizu, K.; Canongia Lopes, J. N.; Rebelo, L. P. N. (2011) J. Chem. Eng. Data 56(12), 4356-4363.", "title": "Mixtures of Pyridine and Nicotine with Pyridinium-Based Ionic Liquids"}, "phases": ["Crystal", "Liquid"], "components": [{"sample": [["Source:", "synthesized by others"], ["Purification:", "NMR (proton)"], ["Purity:", "99 mol %(dried by vacuum heating)"]], "name": "1-hexyl-3-methylpyridinium chloride", "formula": "C<SUB>12</SUB>H<SUB>20</SUB>ClN", "idout": "AApFXa", "mw": "213.75"}], "title": "Phase transition properties: Normal melting temperature", "dhead": [["Normal melting temperature, K"]], "data": [[["353", "2.5"]]], "solvent": null, "footer": "", "expmeth": "Visual observation"}