{"ref": {"title": "Bronsted acid-base ionic liquids for fuel cell electrolytes", "full": "Nakamoto, H.; Watanabe, M. (2007) Chem. Commun. No. 24, 2539-2541."}, "constr": ["Pressure of 1 atm"], "phases": ["Crystal", "Liquid"], "title": "Phase transition properties: Normal melting temperature", "components": [{"formula": "C<SUB>13</SUB>H<SUB>31</SUB>NO<SUB>4</SUB>S", "name": "tributylmethylammonium hydrogen sulfate", "idout": "ABFKhu", "mw": "297.45", "sample": [["Source:", "synthesized by the authors"], ["Purification:", "estimated by the compiler"], ["Purity:", "97 mass %(dried by vacuum heating)"]]}], "dhead": [["Normal melting temperature, K"]], "footer": "", "solvent": null, "data": [[["369.6", "1.1"]]], "expmeth": "DSC/DTA"}