{"title": "Phase transition properties: Normal melting temperature", "components": [{"sample": [["Source:", "synthesized by the authors"]], "idout": "ACJwcs", "mw": "592.48", "formula": "C<SUB>39</SUB>H<SUB>74</SUB>ClN", "name": "4-(1-hexadecylheptadecyl)-1-methylpyridinium chloride"}], "dhead": [["Normal melting temperature, K"]], "footer": "", "data": [[["337.1", "1"]]], "solvent": null, "expmeth": false, "constr": ["Pressure of 1 atm"], "ref": {"title": "Thermotropic liquid-crystalline behavior of some single- and double-chained pyridinium amphiphiles", "full": "Sudholter, E. J. R.; Engberts, J. B. F. N.; de Jeu, W. H. (1982) J. Phys. Chem. 86, 1908-13."}, "phases": ["Crystal", "Liquid"]}