{"constr": ["Pressure of 1 atm"], "ref": {"title": "Synthesis and physical properties of tris(dialkylamino)cyclopropenium bistriflamide ionic liquids", "full": "Walst, K. J.; Yunis, R.; Bayley, P. M.; MacFarlane, D. R.; Ward, C. J.; Wang, R.; Curnow, O. J. (2015) RSC Adv. 5(49), 39565-39579."}, "phases": ["Crystal", "Liquid"], "components": [{"sample": [["Source:", "synthesized by the authors"], ["Purification:", "estimated by the compiler"], ["Purity:", "98 mass %(dried by vacuum heating;solvent extraction)"]], "idout": "ACeoXM", "mw": "700.89", "formula": "C<SUB>29</SUB>H<SUB>54</SUB>F<SUB>6</SUB>N<SUB>4</SUB>O<SUB>4</SUB>S<SUB>2</SUB>", "name": "tris(dibutylamino)cyclopropenium bis(trifluoromethanesulfonyl)amide"}], "title": "Phase transition properties: Normal melting temperature", "dhead": [["Normal melting temperature, K"]], "solvent": null, "data": [[["280.1", "2"]]], "footer": "", "expmeth": "DSC/DTA"}