{"components": [{"sample": [["Source:", "synthesized by the authors"], ["Purification:", "estimated by the compiler"], ["Purity:", "97 mass %(dried by vacuum heating)"]], "idout": "AAyXSN", "mw": "262.31", "formula": "C<SUB>14</SUB>H<SUB>18</SUB>N<SUB>2</SUB>O<SUB>3</SUB>", "name": "N-butylimidazolium salicylate"}], "title": "Phase transition properties: Normal melting temperature", "dhead": [["Normal melting temperature, K"]], "solvent": null, "data": [[["318.1", "2"]]], "footer": "", "expmeth": "DSC/DTA", "ref": {"full": "Fadeeva, Yu.A.; Gruzdev, M.S.; Kudryakova, N.O.; Shmukler, L.E.; Safonova, L.P. (2020) J. Mol. Liq. 297, 111305.", "title": "Physico-chemical characterization of alkyl-imidazolium protic ionic liquids"}, "constr": ["Pressure of 1 atm"], "phases": ["Crystal", "Liquid"]}