{"ref": {"title": "Structure-property relations in ionic liquids: 1,2,3-trimethyl-imidazolium and 1,2,3-trimethyl-benzimidazolium bis-(trifluorsulfonyl)imide", "full": "Zaitsau, Dzmitry H.; Yermalayeu, Andrei V.; Emel'yanenko, Vladimir N.; Schick, Christoph; Verevkin, Sergey P.; Samarov, Artemiy A.; Schlenk, Stefan; Wasserscheid, Peter (2013) Z. Phys. Chem. (Munich) 227(2-3), 205-215."}, "constr": ["Pressure of 1 atm"], "phases": ["Crystal", "Liquid"], "title": "Phase transition properties: Normal melting temperature", "components": [{"sample": [["Source:", "synthesized by the authors"], ["Purification:", "estimated by the compiler"], ["Purity:", "98 mass %(dried by vacuum heating;solvent extraction)"]], "idout": "ABgtMm", "mw": "441.36", "formula": "C<SUB>12</SUB>H<SUB>13</SUB>F<SUB>6</SUB>N<SUB>3</SUB>O<SUB>4</SUB>S<SUB>2</SUB>", "name": "1,2,3-trimethylbenzoimidazolium bis((trifluoromethyl)sulfonyl)amide"}], "dhead": [["Normal melting temperature, K"]], "footer": "", "data": [[["336", "1"]]], "solvent": null, "expmeth": "DSC/DTA"}