{"title": "Phase transition properties: Normal melting temperature", "components": [{"sample": [["Source:", "synthesized by the authors"], ["Purification:", "estimated by the compiler"], ["Purity:", "98 mass %(dried by vacuum heating;solvent extraction)"]], "name": "tris(dimethylamino)cyclopropenium dicyanamide", "formula": "C<SUB>11</SUB>H<SUB>18</SUB>N<SUB>6</SUB>", "mw": "234.31", "idout": "AAtDjK"}], "dhead": [["Normal melting temperature, K"]], "footer": "", "data": [[["390.1", "2"]]], "solvent": null, "expmeth": "DSC/DTA", "ref": {"title": "Synthesis and physical properties of tris(dialkylamino)cyclopropenium dicyanamide ionic liquids", "full": "Curnow, O. J.; Polson, M. I. J.; Walst, K. J.; Yunis, R. (2018) RSC Adv. 8(50), 28313-28322."}, "constr": ["Pressure of 1 atm"], "phases": ["Crystal", "Liquid"]}