{"components": [{"formula": "C<SUB>8</SUB>H<SUB>15</SUB>ClN<SUB>2</SUB>", "name": "1-butyl-3-methylimidazolium chloride", "idout": "AAherF", "mw": "174.67", "sample": [["Source:", "commercial source"], ["Purification:", "stated by supplier"], ["Purity:", "98 % (basis not specified)"]]}], "title": "Phase transition properties: Normal melting temperature", "dhead": [["Normal melting temperature, K"]], "data": [[["341.9", "2"]]], "solvent": null, "footer": "", "expmeth": "DSC/DTA", "ref": {"title": "Thermal and Structural Studies of Imidazolium-Based Ionic Liquids with and without Liquid-Crystalline Phases: The Origin of Nanostructure", "full": "Nemoto, F.; Kofu, M.; Yamamuro, O. (2015) J. Phys. Chem. B 119(15), 5028-5034."}, "constr": ["Pressure of 1 atm"], "phases": ["Crystal", "Liquid"]}