{"constr": ["Pressure of 1 atm"], "ref": {"full": "Stolarska, O.; Rodriguez, H.; Smiglak, M. (2016) Fluid Phase Equilib. 408, 1-9.", "title": "Eutectic mixtures of pyrrolidinium-based ionic liquids"}, "phases": ["Crystal", "Liquid"], "components": [{"formula": "C<SUB>7</SUB>H<SUB>16</SUB>BF<SUB>4</SUB>N", "name": "1-ethyl-1-methylpyrrolidinium tetrafluoroborate", "mw": "201.02", "idout": "AAmiLp", "sample": [["Source:", "synthesized by the authors"], ["Purification:", "NMR (proton)"], ["Purity:", "98 mass %"], ["Purity analysis:", "dried by vacuum heating"]]}], "title": "Phase transition properties: Normal melting temperature", "dhead": [["Normal melting temperature, K"]], "data": [[["339", "2"]]], "solvent": null, "footer": "", "expmeth": "DSC/DTA"}