{"components": [{"sample": [["Source:", "synthesized by the authors"], ["Purification:", "estimated by the compiler"], ["Purity:", "99 % (basis not specified)"]], "name": "1-(2-azidoethyl)-4-methyl-4H-1,2,4-triazol-1-ium perchlorate", "formula": "C<SUB>5</SUB>H<SUB>9</SUB>ClN<SUB>6</SUB>O<SUB>4</SUB>", "idout": "AAweqq", "mw": "252.62"}], "title": "Phase transition properties: Normal melting temperature", "dhead": [["Normal melting temperature, K"]], "data": [[["221.1", "1"]]], "solvent": null, "footer": "", "expmeth": "DSC/DTA", "constr": ["Pressure of 1 atm"], "ref": {"full": "Xue, H.; Shreeve, J. (2005) Adv. Mater. Res. 17, 2142-2146.", "title": "Energetic Ionic Liquids from Azido Derivatives of 1,2,4-Triazole"}, "phases": ["Crystal", "Liquid"]}