{"components": [{"formula": "C<SUB>8</SUB>H<SUB>10</SUB>F<SUB>3</SUB>NO<SUB>3</SUB>S", "name": "1-ethylpyridinium triflate", "mw": "257.23", "idout": "AAxYCa", "sample": [["Source:", "commercial source"], ["Initial purification:", "stated by supplier"], ["Initial purity:", "99 mass %"], ["Final purification:", "Karl Fischer titration;NMR "], ["Final purity:", "0.0099 water mass %;0.0125 halide impurity mass %(dried in a desiccator;dried by vacuum heating)"]]}], "title": "Phase transition properties: Normal melting temperature", "dhead": [["Normal melting temperature, K"]], "data": [[["289", "1"]]], "solvent": null, "footer": "", "expmeth": "DSC/DTA", "ref": {"full": "Garcia-Andreu, M.; Castro, M.; Gascon, I.; Lafuente, C. (2016) J. Chem. Thermodyn. 103, 395-402.", "title": "Thermophysical characterization of 1-ethylpyridinium triflate and comparison with similar ionic liquids"}, "constr": ["Pressure of 1 atm"], "phases": ["Crystal 1", "Liquid"]}