{"components": [{"sample": [["Source:", "synthesized by the authors"], ["Purification:", "estimated by the compiler;Karl Fischer titration"], ["Purity:", "99 mass %;0.04 water mass %(crystallization from solution;dried by vacuum heating;solvent extraction)"]], "formula": "C<SUB>12</SUB>H<SUB>20</SUB>Br<SUB>2</SUB>N<SUB>4</SUB>", "name": "1,1'-(butane-1,4-diyl)bis(3-methyl-1H-imidazol-3-ium) dibromide", "idout": "ABVFhr", "mw": "380.13"}], "title": "Phase transition properties: Normal melting temperature", "dhead": [["Normal melting temperature, K"]], "data": [[["431.5", "1.1"]]], "solvent": null, "footer": "", "expmeth": "DSC/DTA", "ref": {"title": "Thermophysical properties of dicationic imidazolium-based ionic compounds for thermal storage", "full": "Zhang, H.; Xu, W.; Liu, J.; Li, M.; Yang, B. (2019) J. Mol. Liq. 282, 474-483."}, "constr": ["Pressure of 1 atm"], "phases": ["Crystal", "Liquid"]}