{"constr": ["Pressure of 1 atm"], "ref": {"title": "New Energetic Salts Based on Nitrogen-Containing Heterocycles", "full": "Xue, H.; Gao, Y.; Twamley, B.; Shreeve, J. M. (2005) Chem. Mater. 17, 191-198."}, "phases": ["Crystal", "Liquid"], "title": "Phase transition properties: Normal melting temperature", "components": [{"mw": "213.58", "idout": "AApDAZ", "name": "4-amino-1,5-dimethyl-1H-tetrazol-4-ium perchlorate", "formula": "C<SUB>3</SUB>H<SUB>8</SUB>ClN<SUB>5</SUB>O<SUB>4</SUB>", "sample": [["Source:", "synthesized by the authors"], ["Purification:", "estimated by the compiler"], ["Purity:", "98 mol %"]]}], "dhead": [["Normal melting temperature, K"]], "footer": "", "data": [[["324.1", "1"]]], "solvent": null, "expmeth": "DSC/DTA"}