{"ref": {"full": "Broome, F. K.; Hoerr, C. W.; Harwood, H. J. (1951) J. Am. Chem. Soc. 73, 3350-3352.", "title": "The binary systems of water with dodecylammonium chloride and its n-methyl derivatives"}, "constr": ["Pressure of 1 atm"], "phases": ["Crystal", "Liquid"], "title": "Phase transition properties: Normal melting temperature", "components": [{"sample": [["Initial purity analysis:", "unspecified"], ["Final purity analysis:", "dried in a desiccator"]], "mw": "249.87", "idout": "AAwCTH", "name": "dodecyldimethylammonium chloride", "formula": "C<SUB>14</SUB>H<SUB>32</SUB>ClN"}], "dhead": [["Normal melting temperature, K"]], "footer": "", "solvent": null, "data": [[["469.976", "0.24"]]], "expmeth": "Visual observation"}