{"dhead": [["Normal melting temperature, K"]], "components": [{"mw": "422.40", "idout": "ABdMCc", "formula": "C<SUB>11</SUB>H<SUB>20</SUB>F<SUB>6</SUB>N<SUB>2</SUB>O<SUB>4</SUB>S<SUB>2</SUB>", "name": "1-methyl-1-propylpiperidinium bis(trifluoromethylsulfonyl)imide", "sample": [["Source:", "commercial source"], ["Purification:", "stated by supplier"], ["Purity:", "99 mass %"], ["Purity analysis:", "dried by vacuum heating"]]}], "title": "Phase transition properties: Normal melting temperature", "expmeth": "DSC/DTA", "data": [[["285.7", "0.4"]]], "solvent": null, "footer": "", "constr": ["Pressure of 1 atm"], "ref": {"full": "Paduszynski, K.; Chiyen, J.; Ramjugernath, D.; Letcher, T. M.; Domanska, U. (2011) Fluid Phase Equilib. 305(1), 43-52.", "title": "Liquid-liquid phase equilibrium of (piperidinium-based ionic liquid + an alcohol)  binary systems and modelling with NRHB and PCP-SAFT"}, "phases": ["Crystal", "Liquid"]}