{"title": "Phase transition properties: Normal melting temperature", "components": [{"idout": "AAqwEP", "mw": "223.21", "name": "dimethylethylammonium trifluoromethanesulfonate", "formula": "C<SUB>5</SUB>H<SUB>12</SUB>F<SUB>3</SUB>NO<SUB>3</SUB>S", "sample": [["Source:", "synthesized by the authors"], ["Purification:", "estimated by the compiler"], ["Purity:", "97 mass %(dried by vacuum heating)"]]}], "dhead": [["Normal melting temperature, K"]], "footer": "", "data": [[["314.8", "1.1"]]], "solvent": null, "expmeth": "DSC/DTA", "ref": {"full": "Nakamoto, H.; Watanabe, M. (2007) Chem. Commun. No. 24, 2539-2541.", "title": "Bronsted acid-base ionic liquids for fuel cell electrolytes"}, "constr": ["Pressure of 1 atm"], "phases": ["Crystal", "Liquid"]}