{"constr": ["Pressure of 1 atm"], "ref": {"title": "Synthesis, crystal structure and properties of tris(2-hydroxypropyl)ammonium based protic ionic liquids and protic molten salts", "full": "Kondratenko, Y. A.; Antuganov, D. O.; Kadnikova, O. Yu.; Zolotarev, A. A.; Ugolkov, V. L.; Nadporojskii, M. A.; Kochina, T. A. (2021) J. Mol. Liq. 324, 114717."}, "phases": ["Crystal", "Liquid"], "title": "Phase transition properties: Normal melting temperature", "components": [{"sample": [["Source:", "synthesized by the authors"], ["Purification:", "estimated by the compiler"], ["Purity:", "98 mass %(crystallization from solution;dried by vacuum heating)"]], "mw": "314.38", "idout": "ABIXUn", "formula": "C<SUB>15</SUB>H<SUB>26</SUB>N<SUB>2</SUB>O<SUB>5</SUB>", "name": "tris(2-hydroxypropyl)ammonium nicotinate"}], "dhead": [["Normal melting temperature, K"]], "footer": "", "data": [[["391.1", "2"]]], "solvent": null, "expmeth": "Visual observation"}