{"ref": {"title": "Melting behaviour of ionic salts in the presence of high pressure CO2", "full": "Serbanovic, A.; Petrovski, Z.; Manic, M.; Marques, C. S.; Carrera, G. V. S. M.; Branco, L. C.; Afonso, C. A. M.; Nunes da Ponte, M. (2010) Fluid Phase Equilib. 294, 121-130."}, "constr": ["Pressure of 1 atm"], "phases": ["Crystal", "Liquid"], "title": "Phase transition properties: Normal melting temperature", "components": [{"name": "tetrabutylammonium p-toluenesulfonate", "formula": "C<SUB>23</SUB>H<SUB>43</SUB>NO<SUB>3</SUB>S", "idout": "ABbcYf", "mw": "413.66", "sample": [["Source:", "commercial source"], ["Purification:", "stated by supplier"], ["Purity:", "99 % (basis not specified)"]]}], "dhead": [["Normal melting temperature, K"]], "footer": "", "data": [[["345.1", "1"]]], "solvent": null, "expmeth": "Visual observation"}