{"constr": ["Pressure of 1 atm"], "ref": {"title": "Phase transitions, decomposition temperatures, viscosities and densities of phosphonium, ammonium and imidazolium ionic liquids with aprotic heterocyclic anions", "full": "Fillion, J.; Xia, H.; DeSilva, M. A.; Quiroz-Guzman, M.; Brennecke, J. (2016) J. Chem. Eng. Data 61(8), 2897-2914."}, "phases": ["Crystal", "Liquid"], "title": "Phase transition properties: Normal melting temperature", "components": [{"name": "tributyl(octadecyl)phosphonium 1,2,3-triazolide", "formula": "C<SUB>32</SUB>H<SUB>66</SUB>N<SUB>3</SUB>P", "mw": "523.87", "idout": "ABwmun", "sample": [["Source:", "synthesized by the authors"], ["Purification:", "NMR (proton)"], ["Purity:", "99 % (basis not specified)"]]}], "dhead": [["Normal melting temperature, K"]], "footer": "", "data": [[["297", "2"]]], "solvent": null, "expmeth": "DSC/DTA"}