{"ref": {"title": "Synthesis and Properties of Seven Ionic Liquids Containing 1-Methyl-3-octylimidazolium or 1-Butyl-4-methylpyridinium Cations", "full": "Papaiconomou, N.; Yakelis, N.; Salminen, J.; Bergman, R.; Prausnitz, J. M. (2006) J. Chem. Eng. Data 51(4), 1389-1393."}, "constr": ["Pressure of 1 atm"], "phases": ["Crystal", "Liquid"], "components": [{"sample": [["Source:", "synthesized by the authors"]], "formula": "C<SUB>16</SUB>H<SUB>23</SUB>F<SUB>9</SUB>N<SUB>2</SUB>O<SUB>3</SUB>S", "name": "1-methyl-3-octylimidazolium perfluorobutanesulfonate", "idout": "ABrESb", "mw": "494.42"}], "title": "Phase transition properties: Normal melting temperature", "dhead": [["Normal melting temperature, K"]], "data": [[["305.1", "2"]]], "solvent": null, "footer": "", "expmeth": "DSC/DTA"}