{"constr": ["Pressure of 1 atm"], "ref": {"title": "Solubilities of the Cyclohexylamine Salts of the Odd and Even Normal CIO to CZO Fatty Acids in Benzene, Methanol, and Acetone", "full": "Mod, R. R.; Harris, J. A.; Skau, E. L. (1967) J. Chem. Eng. Data 12(1), 108-110."}, "phases": ["Crystal", "Liquid"], "title": "Phase transition properties: Normal melting temperature", "components": [{"sample": [["Source:", "synthesized by the authors"], ["Purity analysis:", "crystallization from solution"]], "mw": "313.53", "idout": "ABIPDI", "formula": "C<SUB>19</SUB>H<SUB>39</SUB>NO<SUB>2</SUB>", "name": "tridecanoic acid cyclohexylamine salt (1:1)"}], "dhead": [["Normal melting temperature, K"]], "footer": "", "solvent": null, "data": [[["356.95", "0.5"]]], "expmeth": "Visual observation"}