{"constr": ["Pressure of 1 atm"], "ref": {"full": "Weiss, H.; Mars, J.; Li, H.; Kircher, G.; Ivanova, O.; Feoktystov, A.; Soltwedel, O.; Bier, M.; Mezger, M. (2017) J. Phys. Chem. B 121(3), 620-629.", "title": "Mesoscopic Correlation Functions in Heterogeneous Ionic Liquids"}, "phases": ["Crystal", "Liquid"], "title": "Phase transition properties: Normal melting temperature", "components": [{"idout": "ACuGAJ", "mw": "780.61", "formula": "C<SUB>28</SUB>H<SUB>43</SUB>F<SUB>18</SUB>N<SUB>2</SUB>P", "name": "1-methyl-3-octadecylimidazolium tris(pentafluoroethyl)trifluorophosphate", "sample": [["Source:", "commercial source"], ["Purification:", "estimated by the compiler"], ["Purity:", "98 mass %(dried by vacuum heating)"]]}], "dhead": [["Normal melting temperature, K"]], "footer": "", "solvent": null, "data": [[["319.1", "1"]]], "expmeth": "DSC/DTA"}