{"dhead": [["Normal melting temperature, K"]], "components": [{"formula": "CHO<SUB>2</SUB>Tl", "name": "thallium methanoate", "idout": "AAvxNH", "mw": "249.40", "sample": [["Source:", "synthesized by the authors"], ["Purification:", "chemical analysis;spectroscopy"]]}], "title": "Phase transition properties: Normal melting temperature", "expmeth": false, "data": [[["374", "1"]]], "solvent": null, "footer": "", "ref": {"full": "Meisel, T.; Seybold, K.; Halmos, Z.; Roth, J.; Melykuti, C. (1976) J. Therm. Anal. 10, 419-31.", "title": "Thermal behavior of thallium(I) fatty acid salts. I."}, "constr": ["Pressure of 1 atm"], "phases": ["Crystal", "Liquid"]}