{"phases": ["Crystal", "Liquid"], "ref": {"full": "Xue, H.; Shreeve, J. (2005) Adv. Mater. Res. 17, 2142-2146.", "title": "Energetic Ionic Liquids from Azido Derivatives of 1,2,4-Triazole"}, "constr": ["Pressure of 1 atm"], "expmeth": "DSC/DTA", "data": [[["217.1", "1"]]], "solvent": null, "footer": "", "dhead": [["Normal melting temperature, K"]], "components": [{"formula": "C<SUB>5</SUB>H<SUB>9</SUB>N<SUB>7</SUB>O<SUB>3</SUB>", "name": "4-(2-azidoethyl)-1-methyl-4H-1,2,4-triazol-1-ium nitrate", "idout": "AApTYC", "mw": "215.17", "sample": [["Source:", "synthesized by the authors"], ["Purification:", "estimated by the compiler"], ["Purity:", "99 % (basis not specified)"]]}], "title": "Phase transition properties: Normal melting temperature"}