{"dhead": [["Normal melting temperature, K"]], "components": [{"formula": "C<SUB>7</SUB>H<SUB>10</SUB>BrNO", "name": "1-(2-hydroxyethyl)pyridinium bromide", "idout": "AAnMlv", "mw": "204.07", "sample": [["Source:", "synthesized by the authors"], ["Purification:", "estimated by the compiler"], ["Purity:", "97 mass %"]]}], "title": "Phase transition properties: Normal melting temperature", "expmeth": "Visual observation", "data": [[["372.6", "5"]]], "solvent": null, "footer": "", "constr": ["Pressure of 1 atm"], "ref": {"title": "In Vitro Evaluation of Phosphocholine and Quaternary Ammonium Containing Lipids as Novel Anti-HIV Agents", "full": "Meyer, K. L.; Marasco, C. J.; Morris-Natschke, S. L.; Ishaq, K. S.; Piantadosi, C. (1991) J. Med. Chem. 34, 1377-1383."}, "phases": ["Crystal", "Liquid"]}