{"constr": ["Pressure of 1 atm"], "ref": {"title": "Synthesis and physical properties of tris(dialkylamino)cyclopropenium dicyanamide ionic liquids", "full": "Curnow, O. J.; Polson, M. I. J.; Walst, K. J.; Yunis, R. (2018) RSC Adv. 8(50), 28313-28322."}, "phases": ["Crystal", "Liquid"], "components": [{"idout": "ADilIs", "mw": "991.76", "name": "tris(didecylamino)cyclopropenium dicyanamide", "formula": "C<SUB>65</SUB>H<SUB>126</SUB>N<SUB>6</SUB>", "sample": [["Source:", "synthesized by the authors"], ["Purification:", "estimated by the compiler;Karl Fischer titration;ion-selective electrode"], ["Purity:", "98 mass %;0.0186 water mass %;0.0369 halide impurity mass %(dried by vacuum heating;solvent extraction)"]]}], "title": "Phase transition properties: Normal melting temperature", "dhead": [["Normal melting temperature, K"]], "solvent": null, "data": [[["260.1", "2"]]], "footer": "", "expmeth": "DSC/DTA"}