{"footer": "", "data": [[["490.02", "0.7"]]], "solvent": null, "expmeth": "DSC/DTA", "title": "Phase transition properties: Normal melting temperature", "components": [{"formula": "C<SUB>10</SUB>H<SUB>24</SUB>BrN", "name": "butyltriethyl ammonium bromide", "mw": "238.21", "idout": "AAtqNS", "sample": [["Source:", "synthesized by the authors"], ["Purification:", "Karl Fischer titration;NMR (proton)"], ["Purity:", "0.0438 water mass %;95.0 mass %(crystallization from solution;dried by vacuum heating)"]]}], "dhead": [["Normal melting temperature, K"]], "phases": ["Crystal 1", "Liquid"], "ref": {"full": "Krolikowska, Marta; Zawadzki, Maciej; Kuna, Tomasz (2019) Thermochim. Acta 671, 220-231.", "title": "Physicochemical and thermodynamic properties of the {1-alkyl-1-methylpiperidinium bromide [C1Cn=2,4PIP][Br], or 1-butylpyridinium bromide, [C4Py][Br], or tri(ethyl)butylammonium bromide [N2,2,2,4] [Br] + water} binary systems"}, "constr": ["Pressure of 1 atm"]}