{"ref": {"full": "Xue, H.; Gao, Y.; Twamley, B.; Shreeve, J. M. (2005) Chem. Mater. 17, 191-198.", "title": "New Energetic Salts Based on Nitrogen-Containing Heterocycles"}, "constr": ["Pressure of 1 atm"], "phases": ["Crystal", "Liquid"], "title": "Phase transition properties: Normal melting temperature", "components": [{"formula": "C<SUB>3</SUB>H<SUB>7</SUB>IN<SUB>4</SUB>", "name": "1-methyl-4-amino-1,2,4-triazolium iodide", "mw": "226.02", "idout": "AArYgy", "sample": [["Source:", "synthesized by the authors"], ["Purification:", "estimated by the compiler"], ["Purity:", "98 mol %"]]}], "dhead": [["Normal melting temperature, K"]], "footer": "", "data": [[["374.1", "1"]]], "solvent": null, "expmeth": "DSC/DTA"}