{"footer": "", "data": [[["262.2", "0.4"]]], "solvent": null, "expmeth": "DSC/DTA", "title": "Phase transition properties: Normal melting temperature", "components": [{"sample": [["Source:", "commercial source"], ["Initial purification:", "gas chromatography"], ["Initial purity:", "98 mass %"], ["Final purification:", "Karl Fischer titration"], ["Final purity:", "0.0420 water mass %"]], "name": "1-butyl-1-methylpyrrolidinium bis[(trifluoromethyl)sulfonyl]imide", "formula": "C<SUB>11</SUB>H<SUB>20</SUB>F<SUB>6</SUB>N<SUB>2</SUB>O<SUB>4</SUB>S<SUB>2</SUB>", "mw": "422.40", "idout": "ABdMNo"}], "dhead": [["Normal melting temperature, K"]], "phases": ["Crystal 1", "Liquid"], "ref": {"title": "Designing eutectic mixtures for the extraction of 2-phenylethanol (PEA) from aqueous phase", "full": "Domanska, U.; Wieckowski, M.; Okuniewska, P. (2017) Fluid Phase Equilib. 447, 84-94."}, "constr": ["Pressure of 1 atm"]}