{"ref": {"title": "Synthesis and thermophysical characterization of novel azide functionalized imidazolium based ionic liquids", "full": "Fareghi-Alamdari, R.; Hatefipour, R. (2015) Thermochim. Acta 617, 172-178."}, "constr": ["Pressure of 1 atm"], "phases": ["Crystal", "Liquid"], "components": [{"sample": [["Source:", "synthesized by the authors"], ["Purity analysis:", "dried by vacuum heating;solvent extraction"]], "formula": "C<SUB>7</SUB>H<SUB>11</SUB>Br<SUB>2</SUB>N<SUB>5</SUB>", "name": "1-(2-azido-3-bromopropyl)-3-methyl-3H-imidazol-1-ium bromide", "mw": "325.01", "idout": "ABKaWV"}], "title": "Phase transition properties: Normal melting temperature", "dhead": [["Normal melting temperature, K"]], "data": [[["283", "1"]]], "solvent": null, "footer": "", "expmeth": "DSC/DTA"}