{"expmeth": "DSC/DTA", "data": [[["332.1", "2"]]], "solvent": null, "footer": "", "dhead": [["Normal melting temperature, K"]], "components": [{"idout": "ACVkeQ", "mw": "653.67", "formula": "C<SUB>20</SUB>H<SUB>36</SUB>F<SUB>9</SUB>NO<SUB>6</SUB>S<SUB>3</SUB>", "name": "tetrabutylammonium tris[(trifluoromethyl)sulfonyl]methide", "sample": [["Source:", "synthesized by the authors"], ["Purification:", "estimated by the compiler"], ["Purity:", "97 % (basis not specified)(dried by oven heating)"]]}], "title": "Phase transition properties: Normal melting temperature", "phases": ["Crystal", "Liquid"], "ref": {"full": "Ngo, H. L.; LeCompte, K.; Hargens, L.; McEwen, A. B. (2000) Thermochim. Acta 357-358, 97-102.", "title": "Thermal properties of imidazolium ionic liquids"}, "constr": ["Pressure of 1 atm"]}