{"components": [{"sample": [["Source:", "commercial source"], ["Initial purification:", "estimated by the compiler"], ["Initial purity:", "98 mass %"], ["Final purification:", "Karl Fischer titration"], ["Final purity:", "0.0093 water mass %(dried by vacuum heating)"]], "formula": "C<SUB>11</SUB>H<SUB>20</SUB>N<SUB>4</SUB>", "name": "1-butyl-1-methylpyrrolidinium dicyanamide", "idout": "AAoDPb", "mw": "208.31"}], "title": "Phase transition properties: Normal melting temperature", "dhead": [["Normal melting temperature, K"]], "data": [[["228", "2"]]], "solvent": null, "footer": "", "expmeth": "DSC/DTA", "constr": ["Pressure of 1 atm"], "ref": {"full": "Kakinuma, S.; Shirota, H. (2019) J. Phys. Chem. B 123(6), 1307-1323.", "title": "Femtosecond Raman-Induced Kerr Effect Study of Temperature-Dependent Intermolecular Dynamics in Pyrrolidinium-Based Ionic Liquids: Effects of Anion Species"}, "phases": ["Crystal", "Liquid"]}