{"ref": {"title": "Solubility of CO2 in the Ionic Liquids [TBMN][MeSO4] and [TBMP][MeSO4]", "full": "Ramdin, M.; Vlugt, T. J. H.; de Loos, T. W. (2012) J. Chem. Eng. Data 57(8), 2275-2280."}, "constr": ["Pressure of 1 atm"], "phases": ["Crystal", "Liquid"], "components": [{"name": "tributylmethylphosphonium methyl sulfate", "formula": "C<SUB>14</SUB>H<SUB>33</SUB>O<SUB>4</SUB>PS", "mw": "328.45", "idout": "ABLIPe", "sample": [["Source:", "commercial source"], ["Initial purification:", "stated by supplier"], ["Initial purity:", "95 mass %"], ["Final purification:", "Karl Fischer titration;ion chromatography"], ["Final purity:", "1.8 water mass %;0.003 halide impurity mass %(dried by vacuum heating)"]]}], "title": "Phase transition properties: Normal melting temperature", "dhead": [["Normal melting temperature, K"]], "data": [[["311.1", "2"]]], "solvent": null, "footer": "", "expmeth": "Visual observation"}