{"ref": {"title": "Thermal properties of 1-alkyl-3-methylpyridinium halide-based ionic  liquids", "full": "Sashina, E. S.; Kashirskii, D. A.; Janowska, G.; Zaborski, M. (2013) Thermochim. Acta 568, 185-8."}, "constr": ["Pressure of 1 atm"], "phases": ["Crystal", "Liquid"], "title": "Phase transition properties: Normal melting temperature", "components": [{"name": "1-hexyl-3-methylpyridinium chloride", "formula": "C<SUB>12</SUB>H<SUB>20</SUB>ClN", "idout": "AApFXa", "mw": "213.75", "sample": [["Source:", "synthesized by the authors"]]}], "dhead": [["Normal melting temperature, K"]], "footer": "", "data": [[["335.1", "5"]]], "solvent": null, "expmeth": "DSC/DTA"}