{"dhead": [["Normal melting temperature, K"]], "components": [{"idout": "ACOfgv", "mw": "616.72", "name": "tris(dipropylamino)cyclopropenium bis(trifluoromethanesulfonyl)amide", "formula": "C<SUB>23</SUB>H<SUB>42</SUB>F<SUB>6</SUB>N<SUB>4</SUB>O<SUB>4</SUB>S<SUB>2</SUB>", "sample": [["Source:", "synthesized by the authors"], ["Purification:", "estimated by the compiler;Karl Fischer titration;ion-selective electrode"], ["Purity:", "98 mass %;0.0100 water mass %;0.0135 halide impurity mass %(dried by vacuum heating;solvent extraction)"]]}], "title": "Phase transition properties: Normal melting temperature", "expmeth": "DSC/DTA", "solvent": null, "data": [[["307.1", "2"]]], "footer": "", "ref": {"title": "Triaminocyclopropenium salts as ionic liquids", "full": "Curnow, O. J.; MacFarlane, D. R.; Walst, K. J. (2011) Chem. Commun. 47(37), 10248-10250."}, "constr": ["Pressure of 1 atm"], "phases": ["Crystal", "Liquid"]}