{"title": "Phase transition properties: Normal melting temperature", "components": [{"sample": [["Source:", "synthesized by the authors"], ["Purification:", "estimated by the compiler"], ["Purity:", "97 mass %"]], "name": "2-fluoropyridinium triflate", "formula": "C<SUB>6</SUB>H<SUB>5</SUB>F<SUB>4</SUB>NO<SUB>3</SUB>S", "mw": "247.16", "idout": "AAvbIp"}], "dhead": [["Normal melting temperature, K"]], "footer": "", "solvent": null, "data": [[["299.1", "2"]]], "expmeth": "DSC/DTA", "ref": {"full": "Jannasch, P.; Rehmen, J.; Evans, D.; Karlsson, C. (2019) J. Phys. Chem. C 123(38), 23427-23432.", "title": "Charge Transport in Nonstoichiometric 2-Fluoropyridinium Triflate Protic Ionic Liquids"}, "constr": ["Pressure of 1 atm"], "phases": ["Crystal", "Liquid"]}