{"constr": ["Pressure of 1 atm"], "ref": {"full": "Li, Z. J.; Zell, M. T.; Munson, E. J.; Grant, D. J.W. (1999) J. Pharm. Sci. 88(3), 337-346.", "title": "Characterization of Racemic Species of Chiral Drugs Using Thermal Analysis, Thermodynamic Calculation, and Structural Studies"}, "phases": ["Crystal", "Liquid"], "title": "Phase transition properties: Normal melting temperature", "components": [{"name": "ephedrine hydrochloride", "formula": "C<SUB>10</SUB>H<SUB>16</SUB>ClNO", "mw": "201.69", "idout": "AAmoSi", "sample": [["Purity analysis:", "unspecified"]]}], "dhead": [["Normal melting temperature, K"]], "footer": "", "solvent": null, "data": [[["492.3", "0"]]], "expmeth": "Differential scanning calorimeter"}