{"constr": ["Pressure of 1 atm"], "ref": {"title": "Deep eutectic solvents formed by quaternary ammonium salts and aprotic organic compound succinonitrile", "full": "Yang, D.; Zhang, S.; Sun, X.-g.; Jiang, D.-e.; Dai, S. (2019) J. Mol. Liq. 274, 414-417."}, "phases": ["Crystal", "Liquid"], "components": [{"name": "tetrabutylammonium chloride", "formula": "C<SUB>16</SUB>H<SUB>36</SUB>ClN", "idout": "ABBXWo", "mw": "277.92", "sample": [["Source:", "commercial source"], ["Purification:", "stated by supplier"], ["Purity:", "99 mass %"]]}], "title": "Phase transition properties: Normal melting temperature", "dhead": [["Normal melting temperature, K"]], "solvent": null, "data": [[["350.1", "2"]]], "footer": "", "expmeth": "DSC/DTA"}