{"ref": {"full": "Ahmed, O. U.; Mjalli, F. S.; Talal, A.-W.; Al-Wahaibi, Y.; Al Nashef, I. M. (2018) J. Solution Chem. 47(3), 468-483.", "title": "Extractive Desulfurization of Liquid Fuel using Modified Pyrollidinium and Phosphonium Based Ionic Liquid Solvents"}, "constr": ["Pressure of 1 atm"], "phases": ["Crystal", "Liquid"], "title": "Phase transition properties: Normal melting temperature", "components": [{"sample": [["Source:", "commercial source"], ["Purification:", "stated by supplier"], ["Purity:", "98 mass %"]], "name": "tetrabutylphosphonium methanesulfonate", "formula": "C<SUB>17</SUB>H<SUB>39</SUB>O<SUB>3</SUB>PS", "idout": "ABQJqf", "mw": "354.53"}], "dhead": [["Normal melting temperature, K"]], "footer": "", "data": [[["331.1", "2.9"]]], "solvent": null, "expmeth": "DSC/DTA"}