{"solvent": null, "data": [[["383.7", "0.1"]]], "footer": "", "expmeth": false, "components": [{"formula": "C<SUB>22</SUB>H<SUB>42</SUB>O<SUB>4</SUB>Pb", "name": "lead(2+) diundecanoate", "mw": "577.77", "idout": "ACHFmj", "sample": [["Source:", "synthesized by the authors"], ["Purity analysis:", "crystallization from solution"]]}], "title": "Phase transition properties: Normal melting temperature", "dhead": [["Normal melting temperature, K"]], "phases": ["Crystal 1", "Liquid"], "ref": {"full": "Adeosun, S. O.; Sime, S. J. (1978) Thermochim. Acta 27(1-3), 319-327.", "title": "The properties of molten carboxylates: Part 7. Odd-even variations in melting and mesophase formation in the lead(II) carboxylates"}, "constr": ["Pressure of 1 atm"]}