{"phases": ["Crystal", "Liquid"], "constr": ["Pressure of 1 atm"], "ref": {"full": "Haddad, B.; Paolone, A.; Villemin, D.; Lohier, J.-F.; Drai, M.; Bresson, S.; Abbas, O.; Belarbi, E.-h. (2018) J. Mol. Liq. 260, 391-402.", "title": "para-Xylyl bis-1-methylimidazolium bis(trifluoromethanesulfonyl)imide: Synthesis, crystal structure, thermal stability, vibrational studies"}, "expmeth": "DSC/DTA", "solvent": null, "data": [[["338.1", "1"]]], "footer": "", "dhead": [["Normal melting temperature, K"]], "components": [{"formula": "C<SUB>20</SUB>H<SUB>20</SUB>F<SUB>12</SUB>N<SUB>6</SUB>O<SUB>8</SUB>S<SUB>4</SUB>", "name": "3,3'-(1,4-phenylenebis(methylene))bis(1-methyl-1H-imidazol-3-ium) bis((trifluoromethyl)sulfonyl)amide", "mw": "828.63", "idout": "ADDSfK", "sample": [["Source:", "synthesized by the authors"], ["Purification:", "estimated by the compiler;Karl Fischer titration"], ["Purity:", "98 mass %;0.035 water mass %(dried by vacuum heating;solvent extraction)"]]}], "title": "Phase transition properties: Normal melting temperature"}