{"ref": {"full": "Le, L. T.M.; Vo, T. D.; Ngo, K. H.P.; Okada, S.; Alloin, F.; Garg, A.; Le, P. M.L. (2018) J. Mol. Liq. 271, 769-777.", "title": "Mixing ionic liquids and ethylene carbonate as safe electrolytes for lithium-ion batteries"}, "constr": ["Pressure of 1 atm"], "phases": ["Crystal", "Liquid"], "components": [{"idout": "ABavep", "mw": "410.39", "formula": "C<SUB>10</SUB>H<SUB>20</SUB>F<SUB>6</SUB>N<SUB>2</SUB>O<SUB>4</SUB>S<SUB>2</SUB>", "name": "N-butyl-N,N-dimethyl-N-ethylammonium bis(trifluoromethanesulfonyl)amide", "sample": [["Source:", "synthesized by the authors"], ["Purification:", "estimated by the compiler;Karl Fischer titration"], ["Purity:", "99 mass %;0.0020 water mass %(liquid chromatography)"]]}], "title": "Phase transition properties: Normal melting temperature", "dhead": [["Normal melting temperature, K"]], "data": [[["263.1", "2"]]], "solvent": null, "footer": "", "expmeth": "DSC/DTA"}