{"data": [[["291.4", "1.1"]]], "solvent": null, "footer": "", "expmeth": "DSC/DTA", "components": [{"sample": [["Source:", "commercial source"], ["Initial purification:", "stated by supplier"], ["Initial purity:", "99 mass %"], ["Final purification:", "Karl Fischer titration"], ["Final purity:", "0.026 water mass %(de-gassed by evacuation)"]], "name": "1-butyl-4-methylpyridinium bis((trifluoromethyl)sulfonyl)amide", "formula": "C<SUB>12</SUB>H<SUB>16</SUB>F<SUB>6</SUB>N<SUB>2</SUB>O<SUB>4</SUB>S<SUB>2</SUB>", "idout": "ABenmT", "mw": "430.38"}], "title": "Phase transition properties: Normal melting temperature", "dhead": [["Normal melting temperature, K"]], "phases": ["Crystal 1", "Liquid"], "ref": {"full": "Domanska, U.; Krolikowski, M.; Ramjugernath, D.; Letcher, T. M.; Tumba, K. (2010) J. Phys. Chem. B 114, 15011-15017.", "title": "Phase Equilibria and Modeling of Pyridinium-Based Ionic Liquid Solutions"}, "constr": ["Pressure of 1 atm"]}