{"phases": ["Crystal", "Liquid"], "constr": ["Pressure of 1 atm"], "ref": {"title": "Effect of Structural Variations on the Thermophysical Properties of Protic Ionic Liquids: Insights from Experimental and Computational Studies", "full": "Khan, Amir Sada; Man, Zakaria; Bustam, Mohamad Azmi; Gonfa, Girma; Chong, Fai Kait; Ullah, Zahoor; Nasrullah, Asma; Sarwono, Ariyanti; Ahmad, Pervaiz; Muhammad, Nawshad (2017) J. Chem. Eng. Data 62(10), 2993-3003."}, "expmeth": "DSC/DTA", "solvent": null, "data": [[["259.7", "2"]]], "footer": "", "dhead": [["Normal melting temperature, K"]], "components": [{"name": "1-(2-cyanoethyl)imidazolium trifluoroacetate", "formula": "C<SUB>8</SUB>H<SUB>8</SUB>F<SUB>3</SUB>N<SUB>3</SUB>O<SUB>2</SUB>", "idout": "AAtLDp", "mw": "235.17", "sample": [["Source:", "commercial source"], ["Initial purification:", "not known"], ["Initial purity:", "99 mass %"], ["Final purification:", "Karl Fischer titration"], ["Final purity:", "0.0253 water mass %"]]}], "title": "Phase transition properties: Normal melting temperature"}