{"constr": ["Pressure of 1 atm"], "ref": {"full": "Kondratenko, Y. A.; Antuganov, D. O.; Kadnikova, O. Yu.; Zolotarev, A. A.; Ugolkov, V. L.; Nadporojskii, M. A.; Kochina, T. A. (2021) J. Mol. Liq. 324, 114717.", "title": "Synthesis, crystal structure and properties of tris(2-hydroxypropyl)ammonium based protic ionic liquids and protic molten salts"}, "phases": ["Crystal", "Liquid"], "dhead": [["Normal melting temperature, K"]], "components": [{"formula": "C<SUB>18</SUB>H<SUB>29</SUB>NO<SUB>5</SUB>", "name": "tris(2-hydroxypropyl)ammonium cinnamate", "mw": "339.43", "idout": "ABNOSJ", "sample": [["Source:", "synthesized by the authors"], ["Purification:", "estimated by the compiler"], ["Purity:", "98 mass %(crystallization from solution;dried by vacuum heating)"]]}], "title": "Phase transition properties: Normal melting temperature", "expmeth": "Visual observation", "data": [[["360.1", "2"]]], "solvent": null, "footer": ""}