{"ref": {"title": "Synthesis, characterization and in vitro antiproliferative evaluation of ionic liquids based on alkyl-substituted thiabendazolium", "full": "El Bourakadi, K.; Merghoub, N.; Hicham, G.; Mekhzoum, M. E. M.; Essassi, E. M.; Qaiss, A. e. k.; Bouhfid, R. (2019) J. Mol. Liq. 282, 63-69."}, "constr": ["Pressure of 1 atm"], "phases": ["Crystal", "Liquid"], "title": "Phase transition properties: Normal melting temperature", "components": [{"formula": "C<SUB>29</SUB>H<SUB>46</SUB>N<SUB>4</SUB>O<SUB>3</SUB>S", "name": "3-methyl-1-octadecyl-2-(thiazol-4-yl)benzimidazolium nitrate", "mw": "530.77", "idout": "AByDlR", "sample": [["Source:", "synthesized by the authors"], ["Purification:", "estimated by the compiler"], ["Purity:", "98 mass %(dried by vacuum heating;solvent extraction)"]]}], "dhead": [["Normal melting temperature, K"]], "footer": "", "data": [[["339.1", "2"]]], "solvent": null, "expmeth": "Visual observation"}