{"title": "Phase transition properties: Normal melting temperature", "components": [{"mw": "199.26", "idout": "AAmQWi", "name": "triethylammonium hydrogen sulfate", "formula": "C<SUB>6</SUB>H<SUB>17</SUB>NO<SUB>4</SUB>S", "sample": [["Source:", "synthesized by the authors"], ["Purification:", "estimated by the compiler"], ["Purity:", "97 mass %(dried by vacuum heating)"]]}], "dhead": [["Normal melting temperature, K"]], "footer": "", "data": [[["347.9", "1.1"]]], "solvent": null, "expmeth": "DSC/DTA", "ref": {"title": "Bronsted acid-base ionic liquids for fuel cell electrolytes", "full": "Nakamoto, H.; Watanabe, M. (2007) Chem. Commun. No. 24, 2539-2541."}, "constr": ["Pressure of 1 atm"], "phases": ["Crystal", "Liquid"]}