{"title": "Phase transition properties: Normal melting temperature", "components": [{"sample": [["Source:", "synthesized by the authors"]], "formula": "C<SUB>11</SUB>H<SUB>14</SUB>F<SUB>6</SUB>NPS", "name": "3-butylbenzo[d]thiazol-3-ium hexafluorophosphate(V)", "idout": "ABMsMY", "mw": "337.26"}], "dhead": [["Normal melting temperature, K"]], "footer": "", "solvent": null, "data": [[["394.85", "0.5"]]], "expmeth": "DSC/DTA", "ref": {"title": "Solubility of Benzothiazolium Ionic Liquids in Water and in Furfural", "full": "Jia, C.; Cao, Y.; Zuo, T.; Hu, R.; Yao, T.; Song, H. (2015) J. Chem. Eng. Data 60(4), 999-1005."}, "constr": ["Pressure of 1 atm"], "phases": ["Crystal 1", "Liquid"]}