{"ref": {"full": "Ozdemir, M. C.; Ozgun, B. (2014) J. Mol. Liq. 200, 129-135.", "title": "Phenyl/alkyl-substituted-3,5-dimethylpyrazolium ionic liquids"}, "constr": ["Pressure of 1 atm"], "phases": ["Crystal", "Liquid"], "components": [{"sample": [["Source:", "synthesized by the authors"]], "idout": "ABDUXA", "mw": "288.10", "formula": "C<SUB>13</SUB>H<SUB>17</SUB>BF<SUB>4</SUB>N<SUB>2</SUB>", "name": "1-phenyl-2-ethyl-3,5-dimethylpyrazolium tetrafluoroborate"}], "title": "Phase transition properties: Normal melting temperature", "dhead": [["Normal melting temperature, K"]], "data": [[["386.1", "1.1"]]], "solvent": null, "footer": "", "expmeth": "DSC/DTA"}