{"dhead": [["Normal melting temperature, K"]], "components": [{"idout": "AApiwC", "mw": "216.66", "formula": "C<SUB>9</SUB>H<SUB>13</SUB>ClN<SUB>2</SUB>O<SUB>2</SUB>", "name": "1-ethenyl-3-(2-ethoxy-2-oxoethyl)-imidazolium chloride", "sample": [["Source:", "synthesized by the authors"], ["Initial purification:", "NMR (proton)"], ["Initial purity:", "99.0 mass %"], ["Final purification:", "Karl Fischer titration"], ["Final purity:", "0.1 water mass %(dried by vacuum heating)"]]}], "title": "Phase transition properties: Normal melting temperature", "expmeth": "Visual observation", "data": [[["325.75", "0.41"]]], "solvent": null, "footer": "", "ref": {"title": "Experimental and DFT Studies on Electrochemical Performances of Ester-Containing Vinylimidazolium Ionic Liquids: Effect of the Ester Substituent and Anion", "full": "Deng, Yupei; Li, Fahui; Shen, Yiyue; Jiang, Qianwen; Ouyang, Mai; Fu, Zhenhao; Du, Huajin; Chen, Zeyu; Wang, Guowei; Zhuang, Linghua (2023) J. Chem. Eng. Data 68(4), 835-847."}, "constr": ["Pressure of 1 atm"], "phases": ["Crystal", "Liquid"]}