{"ref": {"full": "El Bourakadi, K.; Merghoub, N.; Hicham, G.; Mekhzoum, M. E. M.; Essassi, E. M.; Qaiss, A. e. k.; Bouhfid, R. (2019) J. Mol. Liq. 282, 63-69.", "title": "Synthesis, characterization and in vitro antiproliferative evaluation of ionic liquids based on alkyl-substituted thiabendazolium"}, "constr": ["Pressure of 1 atm"], "phases": ["Crystal", "Liquid"], "title": "Phase transition properties: Normal melting temperature", "components": [{"name": "1-dodecyl-3-methyl-2-(thiazol-4-yl)benzimidazolium trifluoromethanesulfonate", "formula": "C<SUB>24</SUB>H<SUB>34</SUB>F<SUB>3</SUB>N<SUB>3</SUB>O<SUB>3</SUB>S<SUB>2</SUB>", "idout": "ABygIT", "mw": "533.67", "sample": [["Source:", "synthesized by the authors"], ["Purification:", "estimated by the compiler"], ["Purity:", "98 mass %(crystallization from solution;dried by vacuum heating)"]]}], "dhead": [["Normal melting temperature, K"]], "footer": "", "data": [[["334.1", "2"]]], "solvent": null, "expmeth": "Visual observation"}