{"title": "Phase transition properties: Normal melting temperature", "components": [{"mw": "146.62", "idout": "AAcKZa", "formula": "C<SUB>6</SUB>H<SUB>11</SUB>ClN<SUB>2</SUB>", "name": "1-ethyl-3-methylimidazolium chloride", "sample": [["Purity analysis:", "unspecified"]]}], "dhead": [["Normal melting temperature, K"]], "footer": "", "data": [[["360.8", "0"]]], "solvent": null, "expmeth": "UNKNOWN", "constr": ["Pressure of 1 atm"], "ref": {"full": "Sola-Cervera, J. L.; Keil, P.; Konig, A. (2010) Chem. Eng. Technol. 33, 821.", "title": "Determination of distribution coefficients in 1-ethyl-3-methyl imidazolium chloride-methylimidazole mixtures by zone melting"}, "phases": ["Crystal", "Liquid"]}