{"constr": ["Pressure of 1 atm"], "ref": {"title": "Solid liquid phase diagram of the two Ionic Liquids EMIMCl and BMIMCl", "full": "Kick, M.; Keil, P.; Konig, A. (2013) Fluid Phase Equilib. 338, 172-178."}, "phases": ["Crystal", "Liquid"], "title": "Phase transition properties: Normal melting temperature", "components": [{"formula": "C<SUB>8</SUB>H<SUB>15</SUB>ClN<SUB>2</SUB>", "name": "1-butyl-3-methylimidazolium chloride", "idout": "AAherF", "mw": "174.67", "sample": [["Source:", "commercial source"], ["Initial purification:", "stated by supplier"], ["Initial purity:", "98 mass %"], ["Final purification:", "Karl Fischer titration;Karl Fischer titration"], ["Final purity:", "0.1 water mass %;99.8 mass %(crystallization from solution;dried by vacuum heating)"]]}], "dhead": [["Normal melting temperature, K"]], "footer": "", "data": [[["342.95", "0.5"]]], "solvent": null, "expmeth": "DSC/DTA"}