{"constr": ["Pressure of 1 atm"], "ref": {"title": "Design, Synthesis, and Analysis of Thermophysical Properties for Imidazolium-Based Geminal Dicationic Ionic Liquids", "full": "Zhang, H.; Li, M.; Yang, B. (2018) J. Phys. Chem. C 122(5), 2467-2474."}, "phases": ["Crystal", "Liquid"], "title": "Phase transition properties: Normal melting temperature", "components": [{"sample": [["Source:", "synthesized by the authors"], ["Purification:", "estimated by the compiler"], ["Purity:", "98 mass %(dried by vacuum heating;solvent extraction)"]], "name": "1,2-bis(3-ethylimidazolium-1-yl)ethane dibromide", "formula": "C<SUB>12</SUB>H<SUB>20</SUB>Br<SUB>2</SUB>N<SUB>4</SUB>", "idout": "ABVFED", "mw": "380.13"}], "dhead": [["Normal melting temperature, K"]], "footer": "", "data": [[["457.4", "2.3"]]], "solvent": null, "expmeth": "DSC/DTA"}