{"ref": {"full": "El Bourakadi, K.; Merghoub, N.; Hicham, G.; Mekhzoum, M. E. M.; Essassi, E. M.; Qaiss, A. e. k.; Bouhfid, R. (2019) J. Mol. Liq. 282, 63-69.", "title": "Synthesis, characterization and in vitro antiproliferative evaluation of ionic liquids based on alkyl-substituted thiabendazolium"}, "constr": ["Pressure of 1 atm"], "phases": ["Crystal", "Liquid"], "components": [{"idout": "ACOqBH", "mw": "617.83", "name": "3-methyl-1-octadecyl-2-(thiazol-4-yl)benzimidazolium trifluoromethanesulfonate", "formula": "C<SUB>30</SUB>H<SUB>46</SUB>F<SUB>3</SUB>N<SUB>3</SUB>O<SUB>3</SUB>S<SUB>2</SUB>", "sample": [["Source:", "synthesized by the authors"], ["Purification:", "estimated by the compiler"], ["Purity:", "98 mass %(crystallization from solution;dried by vacuum heating)"]]}], "title": "Phase transition properties: Normal melting temperature", "dhead": [["Normal melting temperature, K"]], "solvent": null, "data": [[["337.1", "2"]]], "footer": "", "expmeth": "Visual observation"}