{"components": [{"sample": [["Source:", "synthesized by the authors"], ["Initial purification:", "NMR (proton)"], ["Initial purity:", "95 mass %"], ["Final purification:", "Karl Fischer titration"], ["Final purity:", "0.1367 water mass %(crystallization from solution;dried by vacuum heating)"]], "name": "4-butyl-4-methylmorpholinium bromide", "formula": "C<SUB>9</SUB>H<SUB>20</SUB>BrNO", "idout": "AAtpNd", "mw": "238.17"}], "title": "Phase transition properties: Normal melting temperature", "dhead": [["Normal melting temperature, K"]], "data": [[["484.47", "0.41"]]], "solvent": null, "footer": "", "expmeth": "DSC/DTA", "constr": ["Pressure of 1 atm"], "ref": {"full": "Zawadzki, M.; Krolikowska, M.; Antonowicz, J.; Lipinski, P.; Karpinska, M. (2016) J. Chem. Thermodyn. 98, 324-337.", "title": "Physicochemical and thermodynamic properties of the {1-alkyl-1-methylmorpholinium bromide, [C1Cn=3,4,5MOR]Br, or 1-methyl-1-pentylpiperidinium bromide, [C1C5PIP]Br + water} binary systems"}, "phases": ["Crystal 1", "Liquid"]}