{"constr": ["Pressure of 1 atm"], "ref": {"full": "Ozdemir, M. C.; Ozgun, B. (2014) J. Mol. Liq. 200, 129-135.", "title": "Phenyl/alkyl-substituted-3,5-dimethylpyrazolium ionic liquids"}, "phases": ["Crystal", "Liquid"], "dhead": [["Normal melting temperature, K"]], "components": [{"name": "1-phenyl-2-butyl-3,5-dimethylpyrazolium tetrafluoroborate", "formula": "C<SUB>15</SUB>H<SUB>21</SUB>BF<SUB>4</SUB>N<SUB>2</SUB>", "mw": "316.15", "idout": "ABIpvV", "sample": [["Source:", "synthesized by the authors"]]}], "title": "Phase transition properties: Normal melting temperature", "expmeth": "DSC/DTA", "data": [[["340.8", "1.1"]]], "solvent": null, "footer": ""}