{"constr": ["Pressure of 1 atm"], "ref": {"full": "Pereira, Matheus M.; Pedro, Sonia N.; Gomes, Joana; Sintra, Tania E.; Ventura, Sonia P.M.; Coutinho, Joao A.P.; Freire, Mara G.; Mohamadou, Aminou (2019) Fluid Phase Equilib. 494, 239-245.", "title": "Synthesis and characterization of analogues of glycine-betaine ionic liquids and their use in the formation of aqueous biphasic systems"}, "phases": ["Crystal", "Liquid"], "title": "Phase transition properties: Normal melting temperature", "components": [{"formula": "C<SUB>18</SUB>H<SUB>38</SUB>BrO<SUB>2</SUB>P", "name": "N,N,N-tri(n-butyl)(4-ethoxy-4-oxobutyl)-1-phosphonium bromide", "idout": "ABYVqF", "mw": "397.38", "sample": [["Source:", "synthesized by the authors"], ["Initial purification:", "estimated by the compiler"], ["Initial purity:", "98 mass %"], ["Final purification:", "Karl Fischer titration"], ["Final purity:", "0.06 water mass %(de-gassed by evacuation)"]]}], "dhead": [["Normal melting temperature, K"]], "footer": "", "data": [[["361.1", "1"]]], "solvent": null, "expmeth": "DSC/DTA"}