{"title": "Phase transition properties: Normal melting temperature", "components": [{"name": "N,N,N-trihexyl-1-hexanaminium tetrafluoroborate", "formula": "C<SUB>24</SUB>H<SUB>52</SUB>BF<SUB>4</SUB>N", "idout": "ABgusv", "mw": "441.49", "sample": [["Purity analysis:", "unspecified"]]}], "dhead": [["Normal melting temperature, K"]], "footer": "", "data": [[["364.1", "6"]]], "solvent": null, "expmeth": "unknown", "constr": ["Pressure of 1 atm"], "ref": {"full": "Sakizadeh, K.; Olson, L. P.; Cowdery-Corvan, P. J.; Ishida, T.; Whitcomb, D. R. (2007) U.S. Patent US7163786B1, 2007, Jan. 16.", "title": "THERMOGRAPHIC MATERIALS CONTAINING IONIC LIQUIDS"}, "phases": ["Crystal", "Liquid"]}