{"components": [{"formula": "C<SUB>10</SUB>H<SUB>12</SUB>F<SUB>6</SUB>N<SUB>2</SUB>O<SUB>4</SUB>S<SUB>2</SUB>", "name": "1-ethyl-4-methylpyridinium bis((trifluoromethyl)sulfonyl)amide", "idout": "ABZTYy", "mw": "402.33", "sample": [["Source:", "commercial source"], ["Initial purification:", "stated by supplier"], ["Initial purity:", "99 mol %"], ["Final purification:", "Karl Fischer titration"], ["Final purity:", "0.0060 water mass %(dried by vacuum heating)"]]}], "title": "Phase transition properties: Normal melting temperature", "dhead": [["Normal melting temperature, K"]], "data": [[["288", "2"]]], "solvent": null, "footer": "", "expmeth": "DSC/DTA", "ref": {"full": "Gomez, Elena; Requejo, Patricia F.; Dominguez, Angeles; Macedo, Eugenia A. (2020) Fluid Phase Equilib. 519, 112658.", "title": "Influence of the alkyl chain cation position on thermal behaviour: (1,2) and (1,4) pyridinium Bis(trifluoromethylsulfonyl)imide - Based ionic liquids"}, "constr": ["Pressure of 1 atm"], "phases": ["Crystal", "Liquid"]}