{"title": "Phase transition properties: Normal melting temperature", "components": [{"idout": "ABXrWT", "mw": "394.35", "name": "1-ethyl-1-methylpyrrolidinium bis[(trifluoromethyl)sulfonyl]imide", "formula": "C<SUB>9</SUB>H<SUB>16</SUB>F<SUB>6</SUB>N<SUB>2</SUB>O<SUB>4</SUB>S<SUB>2</SUB>", "sample": [["Source:", "commercial source"], ["Purification:", "NMR (proton)"], ["Purity:", "98 mass %"], ["Purity analysis:", "dried by vacuum heating"]]}], "dhead": [["Normal melting temperature, K"]], "footer": "", "solvent": null, "data": [[["364", "2"]]], "expmeth": "DSC/DTA", "ref": {"title": "Eutectic mixtures of pyrrolidinium-based ionic liquids", "full": "Stolarska, O.; Rodriguez, H.; Smiglak, M. (2016) Fluid Phase Equilib. 408, 1-9."}, "constr": ["Pressure of 1 atm"], "phases": ["Crystal", "Liquid"]}