{"title": "Phase transition properties: Normal melting temperature", "components": [{"sample": [["Purity analysis:", "unspecified"]], "name": "N,N,N',N'-tetramethylguanidine 2,2,2-trifluoroacetate", "formula": "C<SUB>7</SUB>H<SUB>14</SUB>F<SUB>3</SUB>N<SUB>3</SUB>O<SUB>2</SUB>", "mw": "229.20", "idout": "AAsESv"}], "dhead": [["Normal melting temperature, K"]], "footer": "", "data": [[["315.15", "0.5"]]], "solvent": null, "expmeth": "Visual observation", "ref": {"title": "Preparation of Room-Temperature Ionic Liquids by Neutralization of 1,1,3,3-Tetramethylguanidine with Acids and their Use as Media for Mannich Reaction", "full": "Gao, H.; Han, B.; Li, J.; Jiang, T.; Liu, Z.; Wu, W.; Chang, Y.; Zhang, J. (2004) Synth. Commun. 34(17), 3083-3089."}, "constr": ["Pressure of 1 atm"], "phases": ["Crystal", "Liquid"]}