{"ref": {"title": "Experimental investigation of thermo-physical properties of geminal dicationic ionic compounds for latent thermal energy storage", "full": "Liu, J.; Yang, W.; Li, Z.; Ren, F.; Hao, H. (2020) J. Mol. Liq. 307, 112994."}, "constr": ["Pressure of 1 atm"], "phases": ["Crystal", "Liquid"], "title": "Phase transition properties: Normal melting temperature", "components": [{"mw": "408.18", "idout": "ABaZOu", "formula": "C<SUB>14</SUB>H<SUB>24</SUB>Br<SUB>2</SUB>N<SUB>4</SUB>", "name": "1,1'-(butane-1,4-diyl)bis(2,4-dimethylimidazolium) bromide", "sample": [["Source:", "synthesized by the authors"], ["Purification:", "estimated by the compiler;Karl Fischer titration"], ["Purity:", "98 mass %;0.0436 water mass %(dried by vacuum heating;solvent extraction)"]]}], "dhead": [["Normal melting temperature, K"]], "footer": "", "data": [[["356.5", "1.1"]]], "solvent": null, "expmeth": "DSC/DTA"}