{"title": "Phase transition properties: Normal melting temperature", "components": [{"formula": "C<SUB>8</SUB>H<SUB>11</SUB>F<SUB>6</SUB>N<SUB>3</SUB>O<SUB>4</SUB>S<SUB>2</SUB>", "name": "1-ethyl-3-methylimidazolium bis((trifluoromethyl)sulfonyl)imide", "idout": "ABXNZH", "mw": "391.30", "sample": [["Source:", "commercial source"], ["Initial purification:", "stated by supplier"], ["Initial purity:", "99 % (basis not specified)"], ["Final purification:", "Karl Fischer titration"], ["Final purity:", "0.023 water mass %(dried by vacuum heating)"]]}], "dhead": [["Normal melting temperature, K"]], "footer": "", "data": [[["256.1", "2"]]], "solvent": null, "expmeth": "DSC/DTA", "ref": {"title": "Thermophysical properties of imidazolium-based ionic liquids", "full": "Fredlake, C. P.; Crosthwaite, J. M.; Hert, D. G.; Aki, S. N. V. K.; Brennecke, J. F. (2004) J. Chem. Eng. Data 49(4), 954-964."}, "constr": ["Pressure of 1 atm"], "phases": ["Metastable crystal", "Liquid"]}