{"ref": {"full": "Mutch, M. L.; Wilkes, J. S. (1998) Proc. - Electrochem. Soc. No. 11, 254-260.", "title": "Thermal analysis of 1-ethyl-2-methylimidazolium molten salt"}, "constr": ["Pressure of 1 atm"], "phases": ["Crystal", "Liquid"], "dhead": [["Normal melting temperature, K"]], "components": [{"name": "1-ethyl-3-methylimidazolium tetrafluoroborate", "formula": "C<SUB>6</SUB>H<SUB>11</SUB>BF<SUB>4</SUB>N<SUB>2</SUB>", "mw": "197.97", "idout": "AAmDom", "sample": [["Source:", "synthesized by others"], ["Purification:", "estimated by the compiler"], ["Purity:", "97 mass %"]]}], "title": "Phase transition properties: Normal melting temperature", "expmeth": "DSC/DTA", "data": [[["277.6", "4"]]], "solvent": null, "footer": ""}