{"constr": ["Pressure of 1 atm"], "ref": {"title": "Low-Melting, Low-Viscous, Hydrophobic Ionic Liquids: Aliphatic Quaternary Ammonium Salts with Perfluoroalkyltrifluoroborates", "full": "Zhou, Z.-B.; Matsumoto, H.; Tatsumi, K. (2005) Chem. Eur. J. 11, 752-766."}, "phases": ["Crystal", "Liquid"], "dhead": [["Normal melting temperature, K"]], "components": [{"mw": "440.42", "idout": "ABgkir", "name": "N,N,N-triethyl-2-methoxyethan-1-aminium bis((trifluoromethyl)sulfonyl)amide", "formula": "C<SUB>11</SUB>H<SUB>22</SUB>F<SUB>6</SUB>N<SUB>2</SUB>O<SUB>5</SUB>S<SUB>2</SUB>", "sample": [["Source:", "synthesized by the authors"], ["Initial purification:", "estimation"], ["Initial purity:", "98 mass %"], ["Final purification:", "not known"], ["Final purity:", "0.005 water mass %"]]}], "title": "Phase transition properties: Normal melting temperature", "expmeth": "DSC/DTA", "data": [[["293.1", "1"]]], "solvent": null, "footer": ""}