{"phases": ["Crystal 1", "Liquid"], "constr": ["Pressure of 1 atm"], "ref": {"title": "Characterising a protic ionic liquid library with applied machine learning algorithms", "full": "Brown, S. J.; Yalcin, D.; Pandiancherri, S.; Le, T. C.; Orhan, I.; Hearn, K.; Han, Q.; Drummond, C. J.; Greaves, T. L. (2022) J. Mol. Liq. 367, 120453."}, "expmeth": "DSC/DTA", "data": [[["364.1", "1.3"]]], "solvent": null, "footer": "", "dhead": [["Normal melting temperature, K"]], "components": [{"formula": "C<SUB>4</SUB>H<SUB>11</SUB>NO<SUB>4</SUB>", "name": "ethanolammonium glycolate", "idout": "AAaTxq", "mw": "137.13", "sample": [["Source:", "synthesized by the authors"], ["Purification:", "estimated by the compiler;Karl Fischer titration"], ["Purity:", "97 mass %;1.58 water mass %(dried by vacuum heating)"]]}], "title": "Phase transition properties: Normal melting temperature"}