{"constr": ["Pressure of 1 atm"], "ref": {"full": "Brown, P.; Butts, C. P.; Eastoe, J.; Fermin, D.; Grillo, I.; Lee, H.-C.; Parker, D.; Plana, D.; Richardson, R. M. (2012) Langmuir 28(5), 2502-2509.", "title": "Anionic Surfactant Ionic Liquids with 1-Butyl-3-methyl-imidazolium Cations: Characterization and Application"}, "phases": ["Crystal", "Liquid"], "title": "Phase transition properties: Normal melting temperature", "components": [{"idout": "ACUUZu", "mw": "646.88", "formula": "C<SUB>32</SUB>H<SUB>58</SUB>N<SUB>2</SUB>O<SUB>9</SUB>S", "name": "1-butyl-3-methylimidazolium 1,5-bis(hexyloxy)-3-((hexyloxy)carbonyl)-1,5-dioxopentane-2-sulfonate", "sample": [["Source:", "synthesized by the authors"], ["Purification:", "Karl Fischer titration"], ["Purity:", "0.5232 water mass %(dried by vacuum heating)"]]}], "dhead": [["Normal melting temperature, K"]], "footer": "", "data": [[["251.2", "1"]]], "solvent": null, "expmeth": "Visual observation"}