{"constr": ["Pressure of 1 atm"], "ref": {"title": "Comparative Study on Physicochemical Properties of Protic Ionic Liquids Based on Allylammonium and Propylammonium Cations", "full": "Yasuda, T.; Kinoshita, H.; Miran, M. S.; Tsuzuki, S.; Watanabe, M. (2013) J. Chem. Eng. Data 58(10), 2724-2732."}, "phases": ["Crystal", "Liquid"], "components": [{"sample": [["Source:", "synthesized by the authors"], ["Purification:", "Karl Fischer titration"], ["Purity:", "0.01 water mass %(dried by vacuum heating)"]], "name": "N-methyl-N-propylpropan-1-aminium trifluoromethanesulfonate", "formula": "C<SUB>8</SUB>H<SUB>18</SUB>F<SUB>3</SUB>NO<SUB>3</SUB>S", "mw": "265.29", "idout": "AAzAsH"}], "title": "Phase transition properties: Normal melting temperature", "dhead": [["Normal melting temperature, K"]], "solvent": null, "data": [[["290.1", "1"]]], "footer": "", "expmeth": "DSC/DTA"}