{"ref": {"full": "El Bourakadi, K.; Merghoub, N.; Hicham, G.; Mekhzoum, M. E. M.; Essassi, E. M.; Qaiss, A. e. k.; Bouhfid, R. (2019) J. Mol. Liq. 282, 63-69.", "title": "Synthesis, characterization and in vitro antiproliferative evaluation of ionic liquids based on alkyl-substituted thiabendazolium"}, "constr": ["Pressure of 1 atm"], "phases": ["Crystal", "Liquid"], "title": "Phase transition properties: Normal melting temperature", "components": [{"idout": "ACCrnT", "mw": "555.57", "formula": "C<SUB>29</SUB>H<SUB>46</SUB>BF<SUB>4</SUB>N<SUB>3</SUB>S", "name": "3-methyl-1-octadecyl-2-(thiazol-4-yl)benzimidazolium tetrafluoroborate", "sample": [["Source:", "synthesized by the authors"], ["Purification:", "estimated by the compiler"], ["Purity:", "98 mass %(crystallization from solution;dried by vacuum heating)"]]}], "dhead": [["Normal melting temperature, K"]], "footer": "", "data": [[["331.1", "2"]]], "solvent": null, "expmeth": "Visual observation"}