{"title": "Phase transition properties: Normal melting temperature", "components": [{"formula": "C<SUB>8</SUB>H<SUB>20</SUB>ClN", "name": "tetraethylammonium chloride", "idout": "AAftPF", "mw": "165.71", "sample": [["Source:", "commercial source"], ["Initial purification:", "stated by supplier"], ["Initial purity:", "98 mass %"], ["Final purification:", "Karl Fischer titration"], ["Final purity:", "0.06 water mass %(de-gassed by evacuation)"]]}], "dhead": [["Normal melting temperature, K"]], "footer": "", "data": [[["535.4", "0.5"]]], "solvent": null, "expmeth": "Visual observation", "ref": {"full": "Abranches, Dinis O.; Silva, Liliana P.; Martins, Monia A.R.; Fernandez, Luis; Pinho, Simao P.; Coutinho, Joao A.P. (2019) Fluid Phase Equilib. 493, 120-126.", "title": "Can cholinium chloride form eutectic solvents with organic chloride-based salts?"}, "constr": ["Pressure of 1 atm"], "phases": ["Crystal", "Liquid"]}