{"title": "Phase transition properties: Normal melting temperature", "components": [{"idout": "AAeLPm", "mw": "157.18", "name": "trimethylammonium hydrogen sulfate", "formula": "C<SUB>3</SUB>H<SUB>11</SUB>NO<SUB>4</SUB>S", "sample": [["Source:", "synthesized by the authors"], ["Purification:", "NMR (proton)"], ["Purity:", "99 mass %(dried by vacuum heating)"]]}], "dhead": [["Normal melting temperature, K"]], "footer": "", "data": [[["402.1", "1"]]], "solvent": null, "expmeth": "Visual observation", "ref": {"title": "Influence of anion on thermophysical properties of ionic liquids with polar solvent", "full": "Govinda, V.; Reddy, P. M.; Attri, P.; Venkatesu, P.; Venkateswarlu, P. (2013) J. Chem. Thermodyn. 58, 269-278."}, "constr": ["Pressure of 1 atm"], "phases": ["Crystal", "Liquid"]}