{"ref": {"title": "Indirect assessment of the fusion properties of choline chloride from solid-liquid equilibria data", "full": "Fernandez, L.; Silva, L. P.; Martins, M. A. R.; Ferreira, O.; Ortega, J.; Pinho, S. P.; Coutinho, J. A. P. (2017) Fluid Phase Equilib. 448, 9-14."}, "constr": ["Pressure of 1 atm"], "phases": ["Crystal", "Liquid"], "dhead": [["Normal melting temperature, K"]], "components": [{"formula": "C<SUB>7</SUB>H<SUB>14</SUB>F<SUB>6</SUB>N<SUB>2</SUB>O<SUB>5</SUB>S<SUB>2</SUB>", "name": "choline bis(trifluoromethylsulfonyl)imide", "idout": "ABVvav", "mw": "384.31", "sample": [["Source:", "commercial source"], ["Initial purification:", "stated by supplier"], ["Initial purity:", "99 mass %"], ["Final purification:", "Karl Fischer titration"], ["Final purity:", "0.06 water mass %"]]}], "title": "Phase transition properties: Normal melting temperature", "expmeth": "Visual observation", "solvent": null, "data": [[["305.65", "0.41"]]], "footer": ""}