{"components": [{"idout": "ABPKOF", "mw": "349.45", "formula": "C<SUB>14</SUB>H<SUB>30</SUB>F<SUB>3</SUB>NO<SUB>3</SUB>S", "name": "tributylmethylammonium trifluoromethanesulfonate", "sample": [["Source:", "synthesized by the authors"], ["Purification:", "estimated by the compiler"], ["Purity:", "97 mass %(dried by vacuum heating)"]]}], "title": "Phase transition properties: Normal melting temperature", "dhead": [["Normal melting temperature, K"]], "solvent": null, "data": [[["360.4", "1.1"]]], "footer": "", "expmeth": "DSC/DTA", "constr": ["Pressure of 1 atm"], "ref": {"title": "Bronsted acid-base ionic liquids for fuel cell electrolytes", "full": "Nakamoto, H.; Watanabe, M. (2007) Chem. Commun. No. 24, 2539-2541."}, "phases": ["Crystal", "Liquid"]}