{"phases": ["Crystal", "Liquid"], "constr": ["Pressure of 1 atm"], "ref": {"title": "Transport and Thermodynamic Properties of Ethylammonium Nitrate Water Binary Mixtures: Effect of Temperature and Composition", "full": "Zarrougui, R.; Dhahbi, M.; Lemordant, D. (2015) J. Solution Chem. 44, 686-702."}, "expmeth": "Visual observation", "solvent": null, "data": [[["285.15", "0.5"]]], "footer": "", "dhead": [["Normal melting temperature, K"]], "components": [{"formula": "C<SUB>2</SUB>H<SUB>8</SUB>N<SUB>2</SUB>O<SUB>3</SUB>", "name": "ethylammonium nitrate", "mw": "108.10", "idout": "AAUohR", "sample": [["Source:", "synthesized by the authors"], ["Initial purification:", "estimated by the compiler"], ["Initial purity:", "97 mass %"], ["Final purification:", "Karl Fischer titration"], ["Final purity:", "0.005 water mass %"]]}], "title": "Phase transition properties: Normal melting temperature"}