{"phases": ["Crystal 1", "Liquid"], "constr": ["Pressure of 1 atm"], "ref": {"title": "Characterising a protic ionic liquid library with applied machine learning algorithms", "full": "Brown, S. J.; Yalcin, D.; Pandiancherri, S.; Le, T. C.; Orhan, I.; Hearn, K.; Han, Q.; Drummond, C. J.; Greaves, T. L. (2022) J. Mol. Liq. 367, 120453."}, "expmeth": "DSC/DTA", "data": [[["309.6", "1.3"]]], "solvent": null, "footer": "", "dhead": [["Normal melting temperature, K"]], "components": [{"idout": "AAaJgU", "mw": "136.15", "formula": "C<SUB>4</SUB>H<SUB>12</SUB>N<SUB>2</SUB>O<SUB>3</SUB>", "name": "n-butylammonium nitrate", "sample": [["Source:", "synthesized by the authors"], ["Purification:", "estimated by the compiler;Karl Fischer titration"], ["Purity:", "97 mass %;0.14 water mass %(dried by vacuum heating)"]]}], "title": "Phase transition properties: Normal melting temperature"}