{"ref": {"full": "Papaiconomou, N.; Yakelis, N.; Salminen, J.; Bergman, R.; Prausnitz, J. M. (2006) J. Chem. Eng. Data 51(4), 1389-1393.", "title": "Synthesis and Properties of Seven Ionic Liquids Containing 1-Methyl-3-octylimidazolium or 1-Butyl-4-methylpyridinium Cations"}, "constr": ["Pressure of 1 atm"], "phases": ["Crystal", "Liquid"], "title": "Phase transition properties: Normal melting temperature", "components": [{"sample": [["Source:", "synthesized by the authors"]], "mw": "261.37", "idout": "AAyNDa", "name": "3-methyl-1-octylimidazolium dicyanamide", "formula": "C<SUB>14</SUB>H<SUB>23</SUB>N<SUB>5</SUB>"}], "dhead": [["Normal melting temperature, K"]], "footer": "", "data": [[["268.1", "2"]]], "solvent": null, "expmeth": "DSC/DTA"}