{"ref": {"full": "Ramenskaya, L.M.; Grishina, E.P.; Kudryakova, N.O. (2020) J. Mol. Liq. 312, 113368.", "title": "Comparative study of atmospheric ionic liquids based on bis(trifluoromethylsulfonyl)imide anion and alkyl substituted cations of ammonium, pyrrolidinium and imidazolium"}, "constr": ["Pressure of 1 atm"], "phases": ["Crystal", "Liquid"], "dhead": [["Normal melting temperature, K"]], "components": [{"formula": "C<SUB>10</SUB>H<SUB>15</SUB>F<SUB>6</SUB>N<SUB>3</SUB>O<SUB>4</SUB>S<SUB>2</SUB>", "name": "1-butyl-3-methylimidazolium bis(trifluoromethylsulfonyl)imide", "idout": "ABchwx", "mw": "419.36", "sample": [["Source:", "commercial source"], ["Initial purification:", "stated by supplier"], ["Initial purity:", "98 mass %"], ["Final purification:", "Karl Fischer titration"], ["Final purity:", "0.24 water mass %"]]}], "title": "Phase transition properties: Normal melting temperature", "expmeth": "DSC/DTA", "solvent": null, "data": [[["266.6", "2.1"]]], "footer": ""}