{"title": "Phase transition properties: Normal melting temperature", "components": [{"sample": [["Source:", "synthesized by the authors"], ["Purification:", "estimated by the compiler"], ["Purity:", "98 mass %(crystallization from solution;dried by vacuum heating)"]], "name": "3-methyl-1-octyl-2-(thiazol-4-yl)benzimidazolium tetrafluoroborate", "formula": "C<SUB>19</SUB>H<SUB>26</SUB>BF<SUB>4</SUB>N<SUB>3</SUB>S", "mw": "415.30", "idout": "ABbtNP"}], "dhead": [["Normal melting temperature, K"]], "footer": "", "data": [[["343.1", "2"]]], "solvent": null, "expmeth": "Visual observation", "constr": ["Pressure of 1 atm"], "ref": {"full": "El Bourakadi, K.; Merghoub, N.; Hicham, G.; Mekhzoum, M. E. M.; Essassi, E. M.; Qaiss, A. e. k.; Bouhfid, R. (2019) J. Mol. Liq. 282, 63-69.", "title": "Synthesis, characterization and in vitro antiproliferative evaluation of ionic liquids based on alkyl-substituted thiabendazolium"}, "phases": ["Crystal", "Liquid"]}