{"dhead": [["Normal melting temperature, K"]], "components": [{"idout": "ABhZrt", "mw": "444.60", "name": "N-adamantyl-N,N-dimethyl-N-hexylammonium bis(fluorosulfonyl)amide", "formula": "C<SUB>18</SUB>H<SUB>34</SUB>F<SUB>2</SUB>N<SUB>2</SUB>O<SUB>4</SUB>S<SUB>2</SUB>", "sample": [["Source:", "synthesized by the authors"]]}], "title": "Phase transition properties: Normal melting temperature", "expmeth": "DSC/DTA", "solvent": null, "data": [[["340.8", "5"]]], "footer": "", "constr": ["Pressure of 1 atm"], "ref": {"title": "Characterization and solution properties of adamantane-containing quaternary-ammonium-salt-type amphiphilic ionic liquids", "full": "Kawai, R.; Yada, S.; Yoshimura, T. (2019) J. Mol. Liq. 294, 111586."}, "phases": ["Crystal", "Liquid"]}