{"components": [{"idout": "AAiEIE", "mw": "177.21", "formula": "C<SUB>8</SUB>H<SUB>11</SUB>N<SUB>5</SUB>", "name": "1-ethyl-3-methylimidazolium dicyanamide", "sample": [["Source:", "commercial source"], ["Purification:", "stated by supplier"], ["Purity:", "98 mass %"], ["Purity analysis:", "dried by vacuum heating"]]}], "title": "Phase transition properties: Normal melting temperature", "dhead": [["Normal melting temperature, K"]], "data": [[["266", "2"]]], "solvent": null, "footer": "", "expmeth": "PPMS relaxation calorimetry", "constr": ["Pressure of 1 atm"], "ref": {"full": "Bernardino, Kalil; Lima, Thamires A.; Ribeiro, Mauro C. C. (2019) J. Phys. Chem. B 123, 9418-9427.", "title": "Low-Temperature Phase Transitions of the Ionic Liquid 1-Ethyl-3-methylimidazolium Dicyanamide"}, "phases": ["Crystal 1", "Liquid"]}