{"ref": {"title": "Physicochemical properties of fatty acid based ionic liquids", "full": "Rocha, M. A. A.; van den Bruinhorst, A.; Schroer, W.; Rathke, B.; Kroon, M. C. (2016) J. Chem. Thermodyn. 100, 156-164."}, "constr": ["Pressure of 1 atm"], "phases": ["Crystal", "Liquid"], "title": "Phase transition properties: Normal melting temperature", "components": [{"mw": "748.36", "idout": "ACnvjZ", "name": "tetraoctylammonium oleate", "formula": "C<SUB>50</SUB>H<SUB>101</SUB>NO<SUB>2</SUB>", "sample": [["Source:", "synthesized by the authors"], ["Purification:", "NMR (proton);Karl Fischer titration;chemical analysis"], ["Purity:", "96 mol %;0.0110 water mass %;0.00014 halide impurity mass %(dried by vacuum heating)"]]}], "dhead": [["Normal melting temperature, K"]], "footer": "", "data": [[["243.6", "0.7"]]], "solvent": null, "expmeth": "DSC/DTA"}