{"title": "Phase transition properties: Normal melting temperature", "components": [{"formula": "C<SUB>6</SUB>H<SUB>15</SUB>NO<SUB>2</SUB>", "name": "3-methylbutylammonium formate", "mw": "133.19", "idout": "AAZfkJ", "sample": [["Source:", "synthesized by the authors"], ["Purification:", "Karl Fischer titration"], ["Purity:", "0.41 water mass %(dried by vacuum heating)"]]}], "dhead": [["Normal melting temperature, K"]], "footer": "", "data": [[["320.1", "5"]]], "solvent": null, "expmeth": "DSC/DTA", "constr": ["Pressure of 1 atm"], "ref": {"title": "Protic Ionic Liquids: Solvents with Tunable Phase Behavior and Physicochemical  Properties", "full": "Greaves, T. L.; Weerawardena, A.; Fong, C.; Krodkiewska, I.; Drummond, C. J. (2006) J. Phys. Chem. B 110(45), 22479-22487."}, "phases": ["Crystal", "Liquid"]}