{"title": "Phase transition properties: Normal melting temperature", "components": [{"sample": [["Source:", "synthesized by the authors"], ["Purification:", "estimated by the compiler"], ["Purity:", "98 mass %(dried by vacuum heating;solvent extraction)"]], "formula": "C<SUB>48</SUB>H<SUB>80</SUB>BNO<SUB>6</SUB>", "name": "trioctyldecylammonium bis(salicylato)borate", "idout": "ACtfYd", "mw": "777.98"}], "dhead": [["Normal melting temperature, K"]], "footer": "", "data": [[["285.6", "1.1"]]], "solvent": null, "expmeth": "DSC/DTA", "constr": ["Pressure of 1 atm"], "ref": {"full": "Gusain, R.; Bakshi, P. S.; Panda, S.; Sharma, O. P.; Gardas, R.; Khatri, O. P. (2017) Phys. Chem. Chem. Phys. 19(9), 6433-6442.", "title": "Physicochemical and tribophysical properties of trioctylalkylammonium bis(salicylato)borate (N888n-BScB) ionic liquids: effect of alkyl chain length"}, "phases": ["Crystal", "Liquid"]}