{"ref": {"full": "Shimizu, Y.; Ohte, Y.; Yamamura, Y.; Saito, K. (2007) Chem. Lett. 36, 1484-1485.", "title": "Effects of Thermal History on Thermal Anomaly in Solid of Ionic Liquid Compound [C4mim][Tf2N]"}, "constr": ["Pressure of 1 atm"], "phases": ["Crystal", "Liquid"], "dhead": [["Normal melting temperature, K"]], "components": [{"name": "1-butyl-3-methylimidazolium bis(trifluoromethylsulfonyl)imide", "formula": "C<SUB>10</SUB>H<SUB>15</SUB>F<SUB>6</SUB>N<SUB>3</SUB>O<SUB>4</SUB>S<SUB>2</SUB>", "mw": "419.36", "idout": "ABchwx", "sample": [["Source:", "commercial source"], ["Initial purification:", "fraction melting in an adiabatic calorimeter"], ["Initial purity:", "99.7 mol %"], ["Final purification:", "Karl Fischer titration"], ["Final purity:", "0.011 water mass %"]]}], "title": "Phase transition properties: Normal melting temperature", "expmeth": "Adiabatic calorimetry", "solvent": null, "data": [[["270.35", "0.05"]]], "footer": ""}