{"ref": {"title": "Benchmark Values: Thermochemistry of the Ionic Liquid [C4Py][Cl]", "full": "Verevkin, S. P.; Zaitsau, D. H.; Emel'yanenko, V. N.; Ralys, R. V.; Schick, C.; Geppert-Rybezynska, M.; Jayaraman, S.; Maginn, E. J. (2012) Aust. J. Chem. 65, 1487."}, "constr": ["Pressure of 1 atm"], "phases": ["Crystal", "Liquid"], "title": "Phase transition properties: Normal melting temperature", "components": [{"sample": [["Purity analysis:", "unspecified"]], "idout": "AAhARo", "mw": "171.67", "formula": "C<SUB>9</SUB>H<SUB>14</SUB>ClN", "name": "1-butylpyridinium chloride"}], "dhead": [["Normal melting temperature, K"]], "footer": "", "data": [[["393.3", "0"]]], "solvent": null, "expmeth": "Differential scanning calorimeter"}