{"ref": {"full": "Bouarab, A. F.; Martins, M. A.R.; Stolarska, O.; Smiglak, M.; Harvey, J.-P.; Coutinho, J. A.P.; Robelin, C. (2020) J. Mol. Liq. 113742.", "title": "Physical properties and solid-liquid equilibria for hexafluorophosphate-based ionic liquid ternary mixtures and their corresponding subsystems"}, "constr": ["Pressure of 1 atm"], "phases": ["Crystal", "Liquid"], "components": [{"sample": [["Source:", "commercial source"], ["Purification:", "estimated by the compiler"], ["Purity:", "99 mass %"]], "formula": "C<SUB>10</SUB>H<SUB>16</SUB>F<SUB>6</SUB>NP", "name": "1-butyl-3-methylpyridinium hexafluorophosphate", "idout": "ABEocW", "mw": "295.21"}], "title": "Phase transition properties: Normal melting temperature", "dhead": [["Normal melting temperature, K"]], "solvent": null, "data": [[["324.8", "2.1"]]], "footer": "", "expmeth": "capillary method"}