{"phases": ["Crystal 1", "Liquid"], "ref": {"title": "Physicochemical and thermodynamic properties of the {1-alkyl-1-methylmorpholinium bromide, [C1Cn=3,4,5MOR]Br, or 1-methyl-1-pentylpiperidinium bromide, [C1C5PIP]Br + water} binary systems", "full": "Zawadzki, M.; Krolikowska, M.; Antonowicz, J.; Lipinski, P.; Karpinska, M. (2016) J. Chem. Thermodyn. 98, 324-337."}, "constr": ["Pressure of 1 atm"], "expmeth": "DSC/DTA", "solvent": null, "data": [[["446.8", "0.41"]]], "footer": "", "dhead": [["Normal melting temperature, K"]], "components": [{"idout": "AAwGGR", "mw": "250.22", "formula": "C<SUB>11</SUB>H<SUB>24</SUB>BrN", "name": "1-methyl-1-pentylpiperidinium bromide", "sample": [["Source:", "synthesized by the authors"], ["Initial purification:", "NMR (proton)"], ["Initial purity:", "95 mass %"], ["Final purification:", "Karl Fischer titration"], ["Final purity:", "0.3520 water mass %(crystallization from solution;dried by vacuum heating)"]]}], "title": "Phase transition properties: Normal melting temperature"}