{"expmeth": "DSC/DTA", "data": [[["368", "0"]]], "solvent": null, "footer": "", "dhead": [["Normal melting temperature, K"]], "components": [{"formula": "C<SUB>25</SUB>H<SUB>46</SUB>N<SUB>2</SUB>O<SUB>2</SUB>", "name": "tetrabutylammonium D-phenylalaninate", "mw": "406.65", "idout": "ABaKPM", "sample": [["Source:", "synthesized by the authors"]]}], "title": "Phase transition properties: Normal melting temperature", "phases": ["Crystal", "Liquid"], "ref": {"full": "Carreira, Ana R.F.; Rocha, Samuel N.; Silva, Francisca A. e; Sintra, Tania E.; Passos, Helena; Ventura, Sonia P.M.; Coutinho, Joao A.P. (2021) Fluid Phase Equilib. 542, 113091.", "title": "Amino-acid-based chiral ionic liquids characterization and application in aqueous biphasic systems"}, "constr": ["Pressure of 1 atm"]}