{"title": "Phase transition properties: Normal melting temperature", "components": [{"sample": [["Source:", "commercial source"], ["Purification:", "estimated by the compiler"], ["Purity:", "97 mass %(none used)"]], "mw": "146.62", "idout": "AAcKZa", "formula": "C<SUB>6</SUB>H<SUB>11</SUB>ClN<SUB>2</SUB>", "name": "1-ethyl-3-methylimidazolium chloride"}], "dhead": [["Normal melting temperature, K"]], "footer": "", "solvent": null, "data": [[["353.1", "4"]]], "expmeth": "Visual observation", "constr": ["Pressure of 1 atm"], "ref": {"title": "Synthesis of water-soluble cellulose esters applying carboxylic acid imidazolides", "full": "Dorn, S.; Pfeifer, A.; Schlufter, K.; Heinze, T. (2010) Polym. Bull. 64, 845-854."}, "phases": ["Crystal", "Liquid"]}