{"ref": {"title": "Pyrrolidinium Ionic Liquid Electrolyte with Bis(trifluoromethylsulfonyl)imide and Bis(fluorosulfonyl)imide Anions: Lithium Solvation and Mobility, and Performance in Lithium Metal-Lithium Iron Phosphate Batteries", "full": "Huang, Q.; Lee, Y.-Y.; Gurkan, B. (2019) Ind. Eng. Chem. Res. 58(50), 22587-22597."}, "constr": ["Pressure of 1 atm"], "phases": ["Crystal", "Liquid"], "title": "Phase transition properties: Normal melting temperature", "components": [{"sample": [["Source:", "commercial source"], ["Initial purification:", "stated by supplier"], ["Initial purity:", "99.5 % (basis not specified)"], ["Final purification:", "Karl Fischer titration"], ["Final purity:", "0.0076 water mass %"]], "name": "1-methyl-1-propylpyrrolidinium bis[(trifluoromethyl)sulfonyl]imide", "formula": "C<SUB>10</SUB>H<SUB>18</SUB>F<SUB>6</SUB>N<SUB>2</SUB>O<SUB>4</SUB>S<SUB>2</SUB>", "mw": "408.37", "idout": "ABabds"}], "dhead": [["Normal melting temperature, K"]], "footer": "", "solvent": null, "data": [[["281.6", "1.2"]]], "expmeth": "DSC/DTA"}