{"constr": ["Pressure of 1 atm"], "ref": {"title": "Thermal behaviour of mixtures of 1-alkylpyridinium halides with and without a common ion", "full": "Stolarska, O.; Soto, A.; Rodriguez, H.; Smiglak, M. (2018) J. Mol. Liq. 268, 781-790."}, "phases": ["Crystal", "Liquid"], "title": "Phase transition properties: Normal melting temperature", "components": [{"idout": "AAkIgT", "mw": "188.07", "name": "1-ethylpyridinium bromide", "formula": "C<SUB>7</SUB>H<SUB>10</SUB>BrN", "sample": [["Source:", "commercial source"], ["Initial purification:", "stated by supplier"], ["Initial purity:", "99 mass %"], ["Final purification:", "Karl Fischer titration"], ["Final purity:", "0.19 water mass %(dried by vacuum heating)"]]}], "dhead": [["Normal melting temperature, K"]], "footer": "", "data": [[["395", "2"]]], "solvent": null, "expmeth": "DSC/DTA"}