{"components": [{"sample": [["Source:", "synthesized by others"], ["Purification:", "NMR (proton)"], ["Purity:", "99 mol %(dried by vacuum heating)"]], "mw": "241.80", "idout": "AAuaPl", "formula": "C<SUB>14</SUB>H<SUB>24</SUB>ClN", "name": "1-octyl-3-methylpyridinium chloride"}], "title": "Phase transition properties: Normal melting temperature", "dhead": [["Normal melting temperature, K"]], "data": [[["352.3", "2.5"]]], "solvent": null, "footer": "", "expmeth": "Visual observation", "constr": ["Pressure of 1 atm"], "ref": {"title": "Mixtures of Pyridine and Nicotine with Pyridinium-Based Ionic Liquids", "full": "Pereiro, A. B.; Rodriguez, A.; Blesic, M.; Shimizu, K.; Canongia Lopes, J. N.; Rebelo, L. P. N. (2011) J. Chem. Eng. Data 56(12), 4356-4363."}, "phases": ["Crystal", "Liquid"]}