{"title": "Phase transition properties: Normal melting temperature", "components": [{"sample": [["Source:", "synthesized by the authors"], ["Purification:", "estimated by the compiler"], ["Purity:", "97 % (basis not specified)(dried by oven heating)"]], "idout": "ABFkkK", "mw": "300.08", "formula": "C<SUB>6</SUB>H<SUB>11</SUB>AsF<SUB>6</SUB>N<SUB>2</SUB>", "name": "1-ethyl-3-methylimidazolium hexafluoroarsenate"}], "dhead": [["Normal melting temperature, K"]], "footer": "", "solvent": null, "data": [[["326.1", "2"]]], "expmeth": "DSC/DTA", "constr": ["Pressure of 1 atm"], "ref": {"full": "Ngo, H. L.; LeCompte, K.; Hargens, L.; McEwen, A. B. (2000) Thermochim. Acta 357-358, 97-102.", "title": "Thermal properties of imidazolium ionic liquids"}, "phases": ["Crystal", "Liquid"]}