{"components": [{"formula": "C<SUB>7</SUB>H<SUB>9</SUB>F<SUB>6</SUB>N<SUB>3</SUB>O<SUB>4</SUB>S<SUB>2</SUB>", "name": "1,3-dimethylimidazolium bis((trifluoromethyl)sulfonyl)amide", "mw": "377.28", "idout": "ABUcyg", "sample": [["Source:", "synthesized by the authors"], ["Purification:", "NMR (proton)"], ["Purity:", "99 mass %"]]}], "title": "Phase transition properties: Normal melting temperature", "dhead": [["Normal melting temperature, K"]], "solvent": null, "data": [[["297", "10"]]], "footer": "", "expmeth": "Phase equilibration", "ref": {"full": "Zhou, Q.; Fitzgerald, K.; Boyle, P. D.; Henderson, W. A. (2010) Chem. Mater. 22(3), 1203-1208.", "title": "Phase Behavior and Crystalline Phases of Ionic Liquid-Lithium Salt Mixtures with 1-Alkyl-3-methylimidazolium Salts"}, "constr": ["Pressure of 1 atm"], "phases": ["Crystal", "Liquid"]}