{"constr": ["Pressure of 1 atm"], "ref": {"title": "Thermochemistry of Alkyl Pyridinium Bromide Ionic Liquids: Calorimetric Measurements and Calculations", "full": "Tong, B.; Liu, Q.-S.; Tan, Z.-C.; Welz-Biermann, U. (2010) J. Phys. Chem. A 114, 3782-3787."}, "phases": ["Crystal", "Liquid"], "components": [{"formula": "C<SUB>8</SUB>H<SUB>12</SUB>BrN", "name": "1-propylpyridinium bromide", "idout": "AAmshH", "mw": "202.09", "sample": [["Source:", "synthesized by the authors"], ["Purification:", "estimated by the compiler"], ["Purity:", "98 mass %(crystallization from solution;dried by vacuum heating)"]]}], "title": "Phase transition properties: Normal melting temperature", "dhead": [["Normal melting temperature, K"]], "data": [[["342.8", "1.4"]]], "solvent": null, "footer": "", "expmeth": "Adiabatic calorimetry"}