{"components": [{"sample": [["Source:", "commercial source"], ["Purification:", "stated by supplier"], ["Purity:", "99 mol %"], ["Purity analysis:", "crystallization from solution;dried with chemical reagent"]], "mw": "374.85", "idout": "ABUEqe", "name": "tetraphenylphosphonium chloride", "formula": "C<SUB>24</SUB>H<SUB>20</SUB>ClP"}], "title": "Phase transition properties: Normal melting temperature", "dhead": [["Normal melting temperature, K"]], "data": [[["547.1", "1"]]], "solvent": null, "footer": "", "expmeth": "DSC/DTA", "ref": {"full": "Hefter, G. T.; Grolier, J. -P. E.; Roux, A. H. (1989) J. Solution Chem. 18(3), 229-248.", "title": "Apparent Molar Heat Capacities and Volumes of Electrolytes and Ions in t-Butanol-Water Mixtures "}, "constr": ["Pressure of 1 atm"], "phases": ["Crystal", "Liquid"]}