{"components": [{"sample": [["Source:", "synthesized by the authors"]], "name": "1-butyl-3-methylimidazolium bromide", "formula": "C<SUB>8</SUB>H<SUB>15</SUB>BrN<SUB>2</SUB>", "mw": "219.13", "idout": "AAqHiH"}], "title": "Phase transition properties: Normal melting temperature", "dhead": [["Normal melting temperature, K"]], "solvent": null, "data": [[["349.2", "0"]]], "footer": "", "expmeth": "DSC/DTA", "constr": ["Pressure of 1 atm"], "ref": {"title": "Conductivities, Volumes, Fluorescence, and Aggregation Behavior of Ionic Liquids [C4mim][BF4] and [Cnmim]Br (n = 4, 6, 8, 10, 12) in Aqueous Solutions", "full": "Wang, J.; Wang, H.; Zhang, S.; Zhang, H.; Zhao, Y. (2007) J. Phys. Chem. B 111, 6181-6188."}, "phases": ["Crystal", "Liquid"]}