{"expmeth": "DSC/DTA", "solvent": null, "data": [[["276.4", "0.5"]]], "footer": "", "dhead": [["Normal melting temperature, K"]], "components": [{"idout": "ABhYBm", "mw": "444.41", "name": "1-hexylpyridinium bis(trifluromethylsulfonyl)imide", "formula": "C<SUB>13</SUB>H<SUB>18</SUB>F<SUB>6</SUB>N<SUB>2</SUB>O<SUB>4</SUB>S<SUB>2</SUB>", "sample": [["Source:", "synthesized by the authors"], ["Purification:", "NMR (proton);Karl Fischer titration"], ["Purity:", "98 mol %;0.045 water mass %(dried by vacuum heating)"]]}], "title": "Phase transition properties: Normal melting temperature", "phases": ["Crystal", "Liquid"], "ref": {"title": "Physicochemical Properties of Ionic Liquids [C3py][NTf2] and [C6py][NTf2]", "full": "Liu, Q.-S.; Yang, M.; Li, P.-P.; Sun, S.-S.; Welz-Biermann, U.; Tan, Z.-C.; Zhang, Q.-G. (2011) J. Chem. Eng. Data 56(11), 4094-4101."}, "constr": ["Pressure of 1 atm"]}