{"data": [[["267", "1"]]], "solvent": null, "footer": "", "expmeth": "DSC/DTA", "components": [{"sample": [["Source:", "commercial source"], ["Initial purification:", "stated by supplier"], ["Initial purity:", "98 mass %"], ["Final purification:", "Karl Fischer titration"], ["Final purity:", "0.03 water mass %(dried by vacuum heating)"]], "mw": "205.26", "idout": "AAnYjG", "formula": "C<SUB>10</SUB>H<SUB>15</SUB>N<SUB>5</SUB>", "name": "1-butyl-3-methylimidazolium dicyanamide"}], "title": "Phase transition properties: Normal melting temperature", "dhead": [["Normal melting temperature, K"]], "phases": ["Crystal 1", "Liquid"], "ref": {"full": "Calvar, N.; Gomez, E.; Macedo, E. A.; Dominguez, A. (2013) Thermochim. Acta 565, 178-82.", "title": "Thermal analysis and heat capacities of pyridinium and imidazolium  ionic liquids"}, "constr": ["Pressure of 1 atm"]}