{"ref": {"full": "Kondratenko, Y. A.; Antuganov, D. O.; Kadnikova, O. Yu.; Zolotarev, A. A.; Ugolkov, V. L.; Nadporojskii, M. A.; Kochina, T. A. (2021) J. Mol. Liq. 324, 114717.", "title": "Synthesis, crystal structure and properties of tris(2-hydroxypropyl)ammonium based protic ionic liquids and protic molten salts"}, "constr": ["Pressure of 1 atm"], "phases": ["Crystal", "Liquid"], "title": "Phase transition properties: Normal melting temperature", "components": [{"name": "tris(2-hydroxypropyl)ammonium acetylsalicylate", "formula": "C<SUB>18</SUB>H<SUB>29</SUB>NO<SUB>7</SUB>", "idout": "ABTWej", "mw": "371.43", "sample": [["Source:", "synthesized by the authors"], ["Purification:", "estimated by the compiler"], ["Purity:", "98 mass %(crystallization from solution;dried by vacuum heating)"]]}], "dhead": [["Normal melting temperature, K"]], "footer": "", "solvent": null, "data": [[["369.1", "2"]]], "expmeth": "Visual observation"}