{"ref": {"title": "Protic Ionic Liquids: Solvents with Tunable Phase Behavior and Physicochemical  Properties", "full": "Greaves, T. L.; Weerawardena, A.; Fong, C.; Krodkiewska, I.; Drummond, C. J. (2006) J. Phys. Chem. B 110(45), 22479-22487."}, "constr": ["Pressure of 1 atm"], "phases": ["Crystal", "Liquid"], "components": [{"mw": "119.16", "idout": "AAWvVd", "name": "2-methylpropylammonium formate", "formula": "C<SUB>5</SUB>H<SUB>13</SUB>NO<SUB>2</SUB>", "sample": [["Source:", "synthesized by the authors"], ["Purification:", "Karl Fischer titration"], ["Purity:", "0.71 water mass %(dried by vacuum heating)"]]}], "title": "Phase transition properties: Normal melting temperature", "dhead": [["Normal melting temperature, K"]], "solvent": null, "data": [[["299.1", "5"]]], "footer": "", "expmeth": "DSC/DTA"}