{"phases": ["Crystal", "Liquid"], "constr": ["Pressure of 1 atm"], "ref": {"full": "De Gaetano, Y.; Mohamadou, A.; Boudesocque, S.; Hubert, J.; Plantier-Royon, R.; Dupont, L. (2015) J. Mol. Liq. 207, 60-66.", "title": "Ionic liquids derived from esters of Glycine Betaine: Synthesis and characterization"}, "expmeth": "DSC/DTA", "data": [[["334.1", "0"]]], "solvent": null, "footer": "", "dhead": [["Normal melting temperature, K"]], "components": [{"formula": "C<SUB>21</SUB>H<SUB>40</SUB>N<SUB>4</SUB>O<SUB>2</SUB>", "name": "N,N,N-trimethyl-2-oxo-2-(tetradecyloxy)ethan-1-aminium dicyanamide", "mw": "380.58", "idout": "ABVJBa", "sample": [["Source:", "synthesized by the authors"], ["Purification:", "estimation"], ["Purity:", "98 mass %(dried by vacuum heating;solvent extraction)"]]}], "title": "Phase transition properties: Normal melting temperature"}