{"ref": {"full": "Domanska, U.; Krolikowska, M.; Paduszynski, K. (2011) Fluid Phase Equilib. 303(1), 1-9.", "title": "Physico-chemical properties and phase behaviour of piperidinium-based ionic liquids"}, "constr": ["Pressure of 1 atm"], "phases": ["Crystal 1", "Liquid"], "dhead": [["Normal melting temperature, K"]], "components": [{"name": "1-butyl-1-methylpiperidinium thiocyanate", "formula": "C<SUB>11</SUB>H<SUB>22</SUB>N<SUB>2</SUB>S", "idout": "AApLNt", "mw": "214.37", "sample": [["Source:", "commercial source"], ["Initial purification:", "stated by supplier"], ["Initial purity:", "98 mass %"], ["Final purification:", "Karl Fischer titration"], ["Final purity:", "0.026 water mass %(dried by vacuum heating)"]]}], "title": "Phase transition properties: Normal melting temperature", "expmeth": "DSC/DTA", "data": [[["304.32", "0.5"]]], "solvent": null, "footer": ""}