{"constr": ["Pressure of 1 atm"], "ref": {"title": "Solubility of 1-Alkyl-3-methylimidazolium Hexafluorophosphate in Hydrocarbons", "full": "Domanska, U.; Marciniak, A. (2003) J. Chem. Eng. Data 48(3), 451-456."}, "phases": ["Crystal", "Liquid"], "components": [{"name": "1-ethyl-3-methylimidazolium hexafluorophosphate", "formula": "C<SUB>6</SUB>H<SUB>11</SUB>F<SUB>6</SUB>N<SUB>2</SUB>P", "mw": "256.13", "idout": "AAxNbY", "sample": [["Source:", "commercial source"], ["Purification:", "not known"], ["Purity:", "98 mass %(none used)"]]}], "title": "Phase transition properties: Normal melting temperature", "dhead": [["Normal melting temperature, K"]], "solvent": null, "data": [[["332.8", "1"]]], "footer": "", "expmeth": "DSC/DTA"}