{"title": "Phase transition properties: Normal melting temperature", "components": [{"sample": [["Source:", "synthesized by the authors"], ["Purity analysis:", "chemical reagent treatment;crystallization from solution"]], "idout": "ABlbdO", "mw": "465.56", "name": "lead(2+) diheptanoate", "formula": "C<SUB>14</SUB>H<SUB>26</SUB>O<SUB>4</SUB>Pb"}], "dhead": [["Normal melting temperature, K"]], "footer": "", "data": [[["374.7", "0.1"]]], "solvent": null, "expmeth": false, "ref": {"title": "The properties of molten carboxylates: Part 7. Odd-even variations in melting and mesophase formation in the lead(II) carboxylates", "full": "Adeosun, S. O.; Sime, S. J. (1978) Thermochim. Acta 27(1-3), 319-327."}, "constr": ["Pressure of 1 atm"], "phases": ["Crystal 1", "Liquid"]}