{"title": "Phase transition properties: Normal melting temperature", "components": [{"sample": [["Source:", "commercial source"], ["Initial purification:", "stated by supplier"], ["Initial purity:", "98 mass %"], ["Final purification:", "Karl Fischer titration"], ["Final purity:", "0.06 water mass %(de-gassed by evacuation)"]], "formula": "C<SUB>12</SUB>H<SUB>28</SUB>ClN", "name": "tetrapropylammonium chloride", "mw": "221.81", "idout": "AAqiHP"}], "dhead": [["Normal melting temperature, K"]], "footer": "", "data": [[["502.4", "0.5"]]], "solvent": null, "expmeth": "Visual observation", "constr": ["Pressure of 1 atm"], "ref": {"title": "Can cholinium chloride form eutectic solvents with organic chloride-based salts?", "full": "Abranches, Dinis O.; Silva, Liliana P.; Martins, Monia A.R.; Fernandez, Luis; Pinho, Simao P.; Coutinho, Joao A.P. (2019) Fluid Phase Equilib. 493, 120-126."}, "phases": ["Crystal", "Liquid"]}