{"data": [[["282.2", "2"]]], "solvent": null, "footer": "", "expmeth": "DSC/DTA", "components": [{"sample": [["Source:", "commercial source"], ["Purification:", "stated by supplier"], ["Purity:", "99 % (basis not specified)"]], "mw": "284.19", "idout": "ABChJv", "name": "1-butyl-3-methylimidazolium hexafluorophosphate", "formula": "C<SUB>8</SUB>H<SUB>15</SUB>F<SUB>6</SUB>N<SUB>2</SUB>P"}], "title": "Phase transition properties: Normal melting temperature", "dhead": [["Normal melting temperature, K"]], "phases": ["Crystal 1", "Liquid"], "constr": ["Pressure of 1 atm"], "ref": {"full": "Nemoto, F.; Kofu, M.; Yamamuro, O. (2015) J. Phys. Chem. B 119(15), 5028-5034.", "title": "Thermal and Structural Studies of Imidazolium-Based Ionic Liquids with and without Liquid-Crystalline Phases: The Origin of Nanostructure"}}