{"ref": {"title": "Synthesis and physical properties of tris(dialkylamino)cyclopropenium bistriflamide ionic liquids", "full": "Walst, K. J.; Yunis, R.; Bayley, P. M.; MacFarlane, D. R.; Ward, C. J.; Wang, R.; Curnow, O. J. (2015) RSC Adv. 5(49), 39565-39579."}, "constr": ["Pressure of 1 atm"], "phases": ["Crystal", "Liquid"], "dhead": [["Normal melting temperature, K"]], "components": [{"formula": "C<SUB>14</SUB>H<SUB>24</SUB>F<SUB>6</SUB>N<SUB>4</SUB>O<SUB>4</SUB>S<SUB>2</SUB>", "name": "tris(ethylmethylamino)cyclopropenium bis(trifluoromethanesulfonyl)amide", "mw": "490.48", "idout": "ABqQxk", "sample": [["Source:", "synthesized by the authors"], ["Purification:", "estimated by the compiler;Karl Fischer titration;ion-selective electrode"], ["Purity:", "98 mass %;0.0990 water mass %;0.0130 halide impurity mass %(dried by vacuum heating;solvent extraction)"]]}], "title": "Phase transition properties: Normal melting temperature", "expmeth": "DSC/DTA", "data": [[["280.1", "2"]]], "solvent": null, "footer": ""}