{"constr": ["Pressure of 1 atm"], "ref": {"full": "El Bourakadi, K.; Merghoub, N.; Hicham, G.; Mekhzoum, M. E. M.; Essassi, E. M.; Qaiss, A. e. k.; Bouhfid, R. (2019) J. Mol. Liq. 282, 63-69.", "title": "Synthesis, characterization and in vitro antiproliferative evaluation of ionic liquids based on alkyl-substituted thiabendazolium"}, "phases": ["Crystal", "Liquid"], "components": [{"sample": [["Source:", "synthesized by the authors"], ["Purification:", "estimated by the compiler"], ["Purity:", "98 mass %(dried by vacuum heating;solvent extraction)"]], "formula": "C<SUB>23</SUB>H<SUB>34</SUB>N<SUB>4</SUB>O<SUB>3</SUB>S", "name": "1-dodecyl-3-methyl-2-(thiazol-4-yl)benzimidazolium nitrate", "idout": "ABhulQ", "mw": "446.61"}], "title": "Phase transition properties: Normal melting temperature", "dhead": [["Normal melting temperature, K"]], "solvent": null, "data": [[["337.1", "2"]]], "footer": "", "expmeth": "Visual observation"}