{"title": "Phase transition properties: Normal melting temperature", "components": [{"sample": [["Source:", "synthesized by the authors"], ["Purification:", "estimated by the compiler"], ["Purity:", "97 mass %(dried by vacuum heating)"]], "idout": "AAoNOj", "mw": "209.30", "name": "N-ethylpiperidinium methanesulfonate", "formula": "C<SUB>8</SUB>H<SUB>19</SUB>NO<SUB>3</SUB>S"}], "dhead": [["Normal melting temperature, K"]], "footer": "", "data": [[["340.8", "1.1"]]], "solvent": null, "expmeth": "DSC/DTA", "ref": {"title": "Bronsted acid-base ionic liquids for fuel cell electrolytes", "full": "Nakamoto, H.; Watanabe, M. (2007) Chem. Commun. No. 24, 2539-2541."}, "constr": ["Pressure of 1 atm"], "phases": ["Crystal", "Liquid"]}