{"footer": "", "data": [[["363.65", "0.5"]]], "solvent": null, "expmeth": "DSC/DTA", "title": "Phase transition properties: Normal melting temperature", "components": [{"sample": [["Source:", "synthesized by the authors"], ["Purification:", "estimated by the compiler"], ["Purity:", "98 mass %(chemical reagent treatment;dried by vacuum heating)"]], "name": "1-butyronitrile-2,3-dimethylimidazolium hexafluorophosphate", "formula": "C<SUB>9</SUB>H<SUB>14</SUB>F<SUB>6</SUB>N<SUB>3</SUB>P", "mw": "309.20", "idout": "ABHXQB"}], "dhead": [["Normal melting temperature, K"]], "phases": ["Crystal 1", "Liquid"], "ref": {"title": "Physicochemical Properties of Nitrile-Functionalized Ionic Liquids", "full": "Zhang, Q.; Li, Z.; Zhang, J.; Zhang, S.; Zhu, L.; Yang, J.; Zhang, X.; Deng, Y. (2007) J. Phys. Chem. B 111, 2864-2872."}, "constr": ["Pressure of 1 atm"]}