{"constr": ["Pressure of 1 atm"], "ref": {"title": "Solubility data and modeling for sugar alcohols in ionic liquids", "full": "Okuniewski, M.; Ramjugernath, D.; Naidoo, P.; Domanska, U. (2014) J. Chem. Thermodyn. 77, 23-30."}, "phases": ["Crystal", "Liquid"], "dhead": [["Normal melting temperature, K"]], "components": [{"mw": "494.47", "idout": "ABrEfh", "name": "1-hexylquinolinium bis(trifluoromethylsulfonyl)amide", "formula": "C<SUB>17</SUB>H<SUB>20</SUB>F<SUB>6</SUB>N<SUB>2</SUB>O<SUB>4</SUB>S<SUB>2</SUB>", "sample": [["Source:", "synthesized by the authors"], ["Purification:", "Karl Fischer titration;estimated by the compiler"], ["Purity:", "0.0397 water mass %;98 mass %(dried by vacuum heating)"]]}], "title": "Phase transition properties: Normal melting temperature", "expmeth": "DSC/DTA", "solvent": null, "data": [[["318", "0.4"]]], "footer": ""}