{"ref": {"full": "Vila, J.; Fernandez-Castro, B.; Rilo, E.; Carrete, J.; Dominguez-Perez, M.; Rodriguez, J. R.; Garcia, M.; Varela, L. M.; Cabeza, O. (2012) Fluid Phase Equilib. 320, 1-10.", "title": "Liquid-solid-liquid phase transition hysteresis loops in the ionic conductivity of ten imidazolium-based ionic liquids"}, "constr": ["Pressure of 1 atm"], "phases": ["Crystal", "Liquid"], "title": "Phase transition properties: Normal melting temperature", "components": [{"formula": "C<SUB>6</SUB>H<SUB>11</SUB>IN<SUB>2</SUB>", "name": "1-ethyl-3-methylimidazolium iodide", "mw": "238.07", "idout": "AAtodn", "sample": [["Source:", "commercial source"], ["Initial purification:", "stated by supplier"], ["Initial purity:", "98 mass %"], ["Final purification:", "Karl Fischer titration"], ["Final purity:", "0.5 water mass %"]]}], "dhead": [["Normal melting temperature, K"]], "footer": "", "solvent": null, "data": [[["350", "1"]]], "expmeth": "Visual observation"}