{"constr": ["Pressure of 1 atm"], "ref": {"full": "Ozdemir, M. C.; Ozgun, B. (2017) J. Mol. Liq. 248, 314-321.", "title": "Tunable aryl alkyl ionic liquids (TAAILs) based on 1-aryl-3,5-dimethyl-1H-pyrazoles"}, "phases": ["Crystal", "Liquid"], "components": [{"mw": "361.25", "idout": "ABRYpf", "name": "1-(4-bromophenyl)-2,3,5-trimethylpyrazolium methanesulfonate", "formula": "C<SUB>13</SUB>H<SUB>17</SUB>BrN<SUB>2</SUB>O<SUB>3</SUB>S", "sample": [["Source:", "synthesized by the authors"], ["Purification:", "estimated by the compiler"], ["Purity:", "99 mass %(dried with chemical reagent;dried by vacuum heating;solvent extraction;impurity adsorption)"]]}], "title": "Phase transition properties: Normal melting temperature", "dhead": [["Normal melting temperature, K"]], "data": [[["349.45", "0.5"]]], "solvent": null, "footer": "", "expmeth": "DSC/DTA"}