{"title": "Phase transition properties: Normal melting temperature", "components": [{"sample": [["Source:", "commercial source"], ["Initial purification:", "stated by supplier"], ["Initial purity:", "98 mass %"], ["Final purification:", "Karl Fischer titration"], ["Final purity:", "0.016 water mass %(dried by oven heating)"]], "mw": "282.36", "idout": "ABCPbo", "name": "1-ethyl-3-methylimidazolium 4-methylbenzenesulfonate", "formula": "C<SUB>13</SUB>H<SUB>18</SUB>N<SUB>2</SUB>O<SUB>3</SUB>S"}], "dhead": [["Normal melting temperature, K"]], "footer": "", "data": [[["322.93", "0.5"]]], "solvent": null, "expmeth": "DSC/DTA", "ref": {"full": "Domanska, U.; Morawski, P. (2007) Green Chem. 9, 361-368.", "title": "Influence of high pressure on solubility of ionic liquids: experimental data and correlation"}, "constr": ["Pressure of 1 atm"], "phases": ["Crystal", "Liquid"]}