{"title": "Phase transition properties: Normal melting temperature", "components": [{"formula": "C<SUB>12</SUB>H<SUB>21</SUB>N<SUB>3</SUB>S", "name": "1-ethyl-2,3,4,6,7,8,9,10-octahydropyrimido[1,2-a]azepinium thiocyanate", "idout": "AAuBEs", "mw": "239.38", "sample": [["Source:", "synthesized by the authors"], ["Purification:", "chemical analysis;Karl Fischer titration;ion-selective electrode"], ["Purity:", "99.73 mass %;0.0723 water mass %;0.0606 halide impurity mass %(dried by vacuum heating)"]]}], "dhead": [["Normal melting temperature, K"]], "footer": "", "data": [[["313.1", "2"]]], "solvent": null, "expmeth": "DSC/DTA", "constr": ["Pressure of 1 atm"], "ref": {"title": "Synthesis, Characterization, and Thermophysical Properties of 1,8-Diazobicyclo[5.4.0]undec-7-ene Based Thiocyanate Ionic Liquids", "full": "Lethesh, K. C.; Shah, S. N.; Mutalib, M. I. A. (2014) J. Chem. Eng. Data 59(6), 1788-1795."}, "phases": ["Crystal", "Liquid"]}