{"ref": {"full": "Domanska, U.; Krolikowski, M.; Slesinska, K. (2009) J. Chem. Thermodyn. 41(11), 1303-1311.", "title": "Phase equilibria study of the binary systems (ionic liquid + thiophene):  Desulphurization process"}, "constr": ["Pressure of 1 atm"], "phases": ["Crystal", "Liquid"], "components": [{"idout": "ABenmT", "mw": "430.38", "name": "1-butyl-4-methylpyridinium bis((trifluoromethyl)sulfonyl)amide", "formula": "C<SUB>12</SUB>H<SUB>16</SUB>F<SUB>6</SUB>N<SUB>2</SUB>O<SUB>4</SUB>S<SUB>2</SUB>", "sample": [["Source:", "commercial source"], ["Initial purification:", "stated by supplier"], ["Initial purity:", "98 mass %"], ["Final purification:", "Karl Fischer titration"], ["Final purity:", "0.026 water mass %(de-gassed by evacuation)"]]}], "title": "Phase transition properties: Normal melting temperature", "dhead": [["Normal melting temperature, K"]], "data": [[["291.4", "0.5"]]], "solvent": null, "footer": "", "expmeth": "DSC/DTA"}