{"constr": ["Pressure of 1 atm"], "ref": {"full": "Sintra, T. E.; Gantman, M. G.; Ventura, S. P.M.; Coutinho, J. A.P.; Wasserscheid, P.; Schulz, P. S. (2019) J. Mol. Liq. 283, 410-416.", "title": "Synthesis and characterization of chiral ionic liquids based on quinine, L-proline and L-valine for enantiomeric recognition"}, "phases": ["Crystal 1", "Liquid"], "title": "Phase transition properties: Normal melting temperature", "components": [{"sample": [["Source:", "synthesized by the authors"], ["Purification:", "estimated by the compiler"], ["Purity:", "98 mass %(dried by vacuum heating;solvent extraction)"]], "formula": "C<SUB>11</SUB>H<SUB>22</SUB>BrNO<SUB>2</SUB>", "name": "(S)-2-(ethoxycarbonyl)-1,1-diethylpyrrolidin-1-ium bromide", "mw": "280.21", "idout": "ABButX"}], "dhead": [["Normal melting temperature, K"]], "footer": "", "data": [[["376", "2"]]], "solvent": null, "expmeth": "DSC/DTA"}