{"ref": {"full": "Domanska, U.; Wieckowski, M.; Okuniewska, P. (2017) Fluid Phase Equilib. 447, 84-94.", "title": "Designing eutectic mixtures for the extraction of 2-phenylethanol (PEA) from aqueous phase"}, "constr": ["Pressure of 1 atm"], "phases": ["Crystal", "Liquid"], "components": [{"sample": [["Source:", "commercial source"], ["Initial purification:", "gas chromatography"], ["Initial purity:", "98 mass %"], ["Final purification:", "Karl Fischer titration"], ["Final purity:", "0.0270 water mass %"]], "idout": "ABigFi", "mw": "450.46", "formula": "C<SUB>13</SUB>H<SUB>24</SUB>F<SUB>6</SUB>N<SUB>2</SUB>O<SUB>4</SUB>S<SUB>2</SUB>", "name": "1-hexyl-1-methylpyrrolidinium bis(trifluoromethanesulfonyl)imide"}], "title": "Phase transition properties: Normal melting temperature", "dhead": [["Normal melting temperature, K"]], "data": [[["277.2", "0.4"]]], "solvent": null, "footer": "", "expmeth": "DSC/DTA"}