{"constr": ["Pressure of 1 atm"], "ref": {"full": "Takaizumi, K.; Wakabayashi, T. (1980) J. Solution Chem. 9(11), 809-818.", "title": "Apparent Molal Volumes of Phosphonium Halides at 15, 25 and 35 degC"}, "phases": ["Crystal", "Liquid"], "components": [{"formula": "C<SUB>20</SUB>H<SUB>28</SUB>BrP", "name": "dibutyldiphenylphosphonium bromide", "mw": "379.32", "idout": "ABUxhm", "sample": [["Source:", "synthesized by the authors"], ["Purification:", "chemical analysis"], ["Purity:", "99.9 mass %"]]}], "title": "Phase transition properties: Normal melting temperature", "dhead": [["Normal melting temperature, K"]], "data": [[["439.65", "0.5"]]], "solvent": null, "footer": "", "expmeth": "Visual observation"}