{"ref": {"full": "Wang, J.; Wang, H.; Zhang, S.; Zhang, H.; Zhao, Y. (2007) J. Phys. Chem. B 111, 6181-6188.", "title": "Conductivities, Volumes, Fluorescence, and Aggregation Behavior of Ionic Liquids [C4mim][BF4] and [Cnmim]Br (n = 4, 6, 8, 10, 12) in Aqueous Solutions"}, "constr": ["Pressure of 1 atm"], "phases": ["Crystal", "Liquid"], "dhead": [["Normal melting temperature, K"]], "components": [{"mw": "331.34", "idout": "ABLlfj", "formula": "C<SUB>16</SUB>H<SUB>31</SUB>BrN<SUB>2</SUB>", "name": "1-dodecyl-3-methylimidazolium bromide", "sample": [["Source:", "synthesized by the authors"]]}], "title": "Phase transition properties: Normal melting temperature", "expmeth": "DSC/DTA", "solvent": null, "data": [[["306.5", "0"]]], "footer": ""}