{"dhead": [["Normal melting temperature, K"]], "components": [{"formula": "C<SUB>8</SUB>H<SUB>6</SUB>F<SUB>3</SUB>NO<SUB>3</SUB>S<SUB>2</SUB>", "name": "benzothiazolium trifluoromethanesulfonate", "idout": "ABCswj", "mw": "285.26", "sample": [["Source:", "synthesized by the authors"], ["Purification:", "HPLC"], ["Purity:", "99 mass %(crystallization from solution;dried by vacuum heating)"]]}], "title": "Phase transition properties: Normal melting temperature", "expmeth": "Visual observation", "data": [[["401.15", "0.5"]]], "solvent": null, "footer": "", "ref": {"full": "Wang, L.; Wang, X.; Zuo, T.; Sun, Q.; Liu, P.; Yao, S.; Song, H. (2014) J. Chem. Thermodyn. 72, 48-53.", "title": "Determination and correlation of the solubility of four Bronsted-acidic ionic liquids based on benzothiazolium cations in six alcohols"}, "constr": ["Pressure of 1 atm"], "phases": ["Crystal", "Liquid"]}