{"dhead": [["Normal melting temperature, K"]], "components": [{"formula": "C<SUB>8</SUB>H<SUB>19</SUB>NO<SUB>3</SUB>", "name": "cholinium propanoate", "idout": "AAiEum", "mw": "177.24", "sample": [["Source:", "synthesized by the authors"], ["Purification:", "Karl Fischer titration"], ["Purity:", "0.01 water mass %(dried by vacuum heating;solvent extraction)"]]}], "title": "Phase transition properties: Normal melting temperature", "expmeth": "Visual observation", "data": [[["282.57", "0.41"]]], "solvent": null, "footer": "", "ref": {"full": "Fernandez, L.; Silva, L. P.; Martins, M. A. R.; Ferreira, O.; Ortega, J.; Pinho, S. P.; Coutinho, J. A. P. (2017) Fluid Phase Equilib. 448, 9-14.", "title": "Indirect assessment of the fusion properties of choline chloride from solid-liquid equilibria data"}, "constr": ["Pressure of 1 atm"], "phases": ["Crystal", "Liquid"]}