{"solvent": null, "data": [[["296.1", "1"]]], "footer": "", "expmeth": "DSC/DTA", "components": [{"sample": [["Source:", "synthesized by the authors"], ["Initial purification:", "estimation"], ["Initial purity:", "98 mass %"], ["Final purification:", "not known"], ["Final purity:", "0.005 water mass %"]], "idout": "ABQOUA", "mw": "355.03", "name": "2-methoxy-N,N,N-trimethylethan-1-aminium trifluoro(perfluoropropyl)borate", "formula": "C<SUB>9</SUB>H<SUB>16</SUB>BF<SUB>10</SUB>NO"}], "title": "Phase transition properties: Normal melting temperature", "dhead": [["Normal melting temperature, K"]], "phases": ["Crystal 1", "Liquid"], "ref": {"full": "Zhou, Z.-B.; Matsumoto, H.; Tatsumi, K. (2005) Chem. Eur. J. 11, 752-766.", "title": "Low-Melting, Low-Viscous, Hydrophobic Ionic Liquids: Aliphatic Quaternary Ammonium Salts with Perfluoroalkyltrifluoroborates"}, "constr": ["Pressure of 1 atm"]}