{"ref": {"full": "Stolarska, O.; Rodriguez, H.; Smiglak, M. (2016) Fluid Phase Equilib. 408, 1-9.", "title": "Eutectic mixtures of pyrrolidinium-based ionic liquids"}, "constr": ["Pressure of 1 atm"], "phases": ["Crystal", "Liquid"], "title": "Phase transition properties: Normal melting temperature", "components": [{"formula": "C<SUB>9</SUB>H<SUB>20</SUB>BrN", "name": "1-butyl-1-methylpyrrolidinium bromide", "idout": "AAqlQM", "mw": "222.17", "sample": [["Source:", "synthesized by the authors"], ["Purification:", "NMR (proton)"], ["Purity:", "98 mass %"], ["Purity analysis:", "crystallization from solution;dried by vacuum heating"]]}], "dhead": [["Normal melting temperature, K"]], "footer": "", "data": [[["477", "2"]]], "solvent": null, "expmeth": "DSC/DTA"}