{"ref": {"full": "Serbanovic, A.; Petrovski, Z.; Manic, M.; Marques, C. S.; Carrera, G. V. S. M.; Branco, L. C.; Afonso, C. A. M.; Nunes da Ponte, M. (2010) Fluid Phase Equilib. 294, 121-130.", "title": "Melting behaviour of ionic salts in the presence of high pressure CO2"}, "constr": ["Pressure of 1 atm"], "phases": ["Crystal", "Liquid"], "title": "Phase transition properties: Normal melting temperature", "components": [{"sample": [["Source:", "synthesized by the authors"], ["Purification:", "NMR (proton)"], ["Purity:", "95 % (basis not specified)"]], "name": "dimethyl di-octadecyl dimethylguanidinium tetraphenylborate", "formula": "C<SUB>65</SUB>H<SUB>106</SUB>BN<SUB>3</SUB>", "mw": "940.39", "idout": "ADYrEJ"}], "dhead": [["Normal melting temperature, K"]], "footer": "", "solvent": null, "data": [[["351.1", "1"]]], "expmeth": "Visual observation"}