{"components": [{"mw": "279.35", "idout": "ABBljf", "name": "1,4-dimethylpyridinium 4-methylbenzenesulfonate", "formula": "C<SUB>14</SUB>H<SUB>17</SUB>NO<SUB>3</SUB>S", "sample": [["Source:", "commercial source"], ["Initial purification:", "stated by supplier"], ["Initial purity:", "98 mass %"], ["Final purification:", "Karl Fischer titration"], ["Final purity:", "0.026 water mass %(de-gassed by evacuation)"]]}], "title": "Phase transition properties: Normal melting temperature", "dhead": [["Normal melting temperature, K"]], "data": [[["424.8", "0.5"]]], "solvent": null, "footer": "", "expmeth": "DSC/DTA", "ref": {"full": "Domanska, U.; Krolikowski, M.; Slesinska, K. (2009) J. Chem. Thermodyn. 41(11), 1303-1311.", "title": "Phase equilibria study of the binary systems (ionic liquid + thiophene):  Desulphurization process"}, "constr": ["Pressure of 1 atm"], "phases": ["Crystal", "Liquid"]}