{"dhead": [["Normal melting temperature, K"]], "components": [{"name": "1-heptylpyridinium bis(trifluoromethylsulfonyl)amide", "formula": "C<SUB>14</SUB>H<SUB>20</SUB>F<SUB>6</SUB>N<SUB>2</SUB>O<SUB>4</SUB>S<SUB>2</SUB>", "mw": "458.43", "idout": "ABkIIX", "sample": [["Source:", "synthesized by the authors"], ["Initial purification:", "estimated by the compiler"], ["Initial purity:", "98 mass %"], ["Final purification:", "estimated by the compiler;Karl Fischer titration;ion-selective electrode"], ["Final purity:", "98 mass %;0.03 water mass %;0.03 halide impurity mass %(dried by vacuum heating)"]]}], "title": "Phase transition properties: Normal melting temperature", "expmeth": "DSC/DTA", "data": [[["272", "1"]]], "solvent": null, "footer": "", "constr": ["Pressure of 1 atm"], "ref": {"title": "Highly Selective Capture of CO2 by Ether-Functionalized Pyridinium Ionic Liquids with Low Viscosity", "full": "Zeng, Shaojuan; Wang, Jian; Bai, Lu; Wang, Binqi; Gao, Hongshuai; Shang, Dawei; Zhang, Xiangping; Zhang, Suojiang (2015) Energy Fuels 29(9), 6039-6048."}, "phases": ["Crystal", "Liquid"]}