{"ref": {"title": "Ionic liquids derived from esters of Glycine Betaine: Synthesis and characterization", "full": "De Gaetano, Y.; Mohamadou, A.; Boudesocque, S.; Hubert, J.; Plantier-Royon, R.; Dupont, L. (2015) J. Mol. Liq. 207, 60-66."}, "constr": ["Pressure of 1 atm"], "phases": ["Crystal", "Liquid"], "components": [{"formula": "C<SUB>22</SUB>H<SUB>47</SUB>NO<SUB>5</SUB>S", "name": "2-(hexadecyloxy)-N,N,N-trimethyl-2-oxoethan-1-aminium methanesulfonate", "idout": "ABgIHK", "mw": "437.68", "sample": [["Source:", "synthesized by the authors"], ["Purification:", "estimation"], ["Purity:", "98 mass %(crystallization from solution;solvent extraction)"]]}], "title": "Phase transition properties: Normal melting temperature", "dhead": [["Normal melting temperature, K"]], "data": [[["378.15", "0"]]], "solvent": null, "footer": "", "expmeth": "DSC/DTA"}