{"components": [{"idout": "ABYgJT", "mw": "398.40", "name": "1,3-dibenzylimidazolium trifluoromethanesulfonate", "formula": "C<SUB>18</SUB>H<SUB>17</SUB>F<SUB>3</SUB>N<SUB>2</SUB>O<SUB>3</SUB>S", "sample": [["Source:", "synthesized by the authors"], ["Purification:", "NMR (proton)"], ["Purity:", "95 % (basis not specified)"]]}], "title": "Phase transition properties: Normal melting temperature", "dhead": [["Normal melting temperature, K"]], "data": [[["346.1", "1"]]], "solvent": null, "footer": "", "expmeth": "Visual observation", "ref": {"full": "Serbanovic, A.; Petrovski, Z.; Manic, M.; Marques, C. S.; Carrera, G. V. S. M.; Branco, L. C.; Afonso, C. A. M.; Nunes da Ponte, M. (2010) Fluid Phase Equilib. 294, 121-130.", "title": "Melting behaviour of ionic salts in the presence of high pressure CO2"}, "constr": ["Pressure of 1 atm"], "phases": ["Crystal", "Liquid"]}