{"components": [{"mw": "297.91", "idout": "ABFPkQ", "formula": "C<SUB>18</SUB>H<SUB>32</SUB>ClN", "name": "1-dodecyl-3-methylpyridinium chloride", "sample": [["Source:", "synthesized by others"], ["Purification:", "NMR (proton)"], ["Purity:", "99 mol %(dried by vacuum heating)"]]}], "title": "Phase transition properties: Normal melting temperature", "dhead": [["Normal melting temperature, K"]], "data": [[["360.8", "0.8"]]], "solvent": null, "footer": "", "expmeth": "DSC/DTA", "ref": {"title": "Mixtures of Pyridine and Nicotine with Pyridinium-Based Ionic Liquids", "full": "Pereiro, A. B.; Rodriguez, A.; Blesic, M.; Shimizu, K.; Canongia Lopes, J. N.; Rebelo, L. P. N. (2011) J. Chem. Eng. Data 56(12), 4356-4363."}, "constr": ["Pressure of 1 atm"], "phases": ["Crystal", "Liquid"]}