{"constr": ["Pressure of 1 atm"], "ref": {"full": "Mod, R. R.; Harris, J. A.; Skau, E. L. (1967) J. Chem. Eng. Data 12(1), 108-110.", "title": "Solubilities of the Cyclohexylamine Salts of the Odd and Even Normal CIO to CZO Fatty Acids in Benzene, Methanol, and Acetone"}, "phases": ["Crystal", "Liquid"], "title": "Phase transition properties: Normal melting temperature", "components": [{"sample": [["Source:", "synthesized by the authors"], ["Purity analysis:", "crystallization from solution"]], "idout": "ABKzvg", "mw": "327.55", "name": "tetradecanoic acid cyclohexanamine salt(1:1)", "formula": "C<SUB>20</SUB>H<SUB>41</SUB>NO<SUB>2</SUB>"}], "dhead": [["Normal melting temperature, K"]], "footer": "", "data": [[["360.75", "0.5"]]], "solvent": null, "expmeth": "Visual observation"}