{"title": "Phase transition properties: Normal melting temperature", "components": [{"sample": [["Source:", "synthesized by others"], ["Purification:", "NMR (proton)"], ["Purity:", "99 mol %(dried by vacuum heating)"]], "idout": "AAuaPl", "mw": "241.80", "formula": "C<SUB>14</SUB>H<SUB>24</SUB>ClN", "name": "1-octyl-3-methylpyridinium chloride"}], "dhead": [["Normal melting temperature, K"]], "footer": "", "data": [[["353.2", "0.8"]]], "solvent": null, "expmeth": "DSC/DTA", "constr": ["Pressure of 1 atm"], "ref": {"full": "Pereiro, A. B.; Rodriguez, A.; Blesic, M.; Shimizu, K.; Canongia Lopes, J. N.; Rebelo, L. P. N. (2011) J. Chem. Eng. Data 56(12), 4356-4363.", "title": "Mixtures of Pyridine and Nicotine with Pyridinium-Based Ionic Liquids"}, "phases": ["Crystal", "Liquid"]}