{"phases": ["Crystal", "Liquid"], "ref": {"full": "Fernandez, L.; Silva, L. P.; Martins, M. A. R.; Ferreira, O.; Ortega, J.; Pinho, S. P.; Coutinho, J. A. P. (2017) Fluid Phase Equilib. 448, 9-14.", "title": "Indirect assessment of the fusion properties of choline chloride from solid-liquid equilibria data"}, "constr": ["Pressure of 1 atm"], "expmeth": "Visual observation", "data": [[["350.42", "0.41"]]], "solvent": null, "footer": "", "dhead": [["Normal melting temperature, K"]], "components": [{"name": "1-ethyl-3-methylimidazolium chloride", "formula": "C<SUB>6</SUB>H<SUB>11</SUB>ClN<SUB>2</SUB>", "idout": "AAcKZa", "mw": "146.62", "sample": [["Source:", "commercial source"], ["Initial purification:", "stated by supplier"], ["Initial purity:", "99 mass %"], ["Final purification:", "Karl Fischer titration"], ["Final purity:", "0.06 water mass %"]]}], "title": "Phase transition properties: Normal melting temperature"}