{"ref": {"full": "Efimova, A.; Hubrig, G.; Schmidt, P. (2013) Thermochim. Acta 573, 162-9.", "title": "Thermal Stability and Crystallization Behavior of Imidazolium Halide Ionic Liquids"}, "constr": ["Pressure of 1 atm"], "phases": ["Crystal", "Liquid"], "title": "Phase transition properties: Normal melting temperature", "components": [{"formula": "C<SUB>8</SUB>H<SUB>15</SUB>BrN<SUB>2</SUB>", "name": "1-butyl-3-methylimidazolium bromide", "idout": "AAqHiH", "mw": "219.13", "sample": [["Source:", "commercial source"], ["Initial purification:", "stated by supplier"], ["Initial purity:", "99 mass %"], ["Final purification:", "Karl Fischer titration"], ["Final purity:", "0.5 water mass %(dried by vacuum heating)"]]}], "dhead": [["Normal melting temperature, K"]], "footer": "", "data": [[["351.1", "2"]]], "solvent": null, "expmeth": "DSC/DTA"}