{"ref": {"title": "Physicochemical Characterization of New Sulfate Ionic Liquids", "full": "Gonzalez, B.; Gomez, E.; Dominguez, A.; Vilas, M.; Tojo, E. (2011) J. Chem. Eng. Data 56(1), 14-20."}, "constr": ["Pressure of 1 atm"], "phases": ["Crystal", "Liquid"], "dhead": [["Normal melting temperature, K"]], "components": [{"name": "1-ethyl-1-methylpyrrolidinium ethyl sulfate", "formula": "C<SUB>9</SUB>H<SUB>21</SUB>NO<SUB>4</SUB>S", "mw": "239.33", "idout": "AAuByn", "sample": [["Source:", "synthesized by the authors"], ["Purity analysis:", "dried by vacuum heating"]]}], "title": "Phase transition properties: Normal melting temperature", "expmeth": "DSC/DTA", "data": [[["306", "2"]]], "solvent": null, "footer": ""}