{"footer": "", "solvent": null, "data": [[["367.15", "0.5"]]], "expmeth": false, "title": "Phase transition properties: Normal melting temperature", "components": [{"formula": "C<SUB>24</SUB>H<SUB>52</SUB>BF<SUB>4</SUB>N", "name": "N,N,N-trihexyl-1-hexanaminium tetrafluoroborate", "mw": "441.49", "idout": "ABgusv", "sample": [["Source:", "synthesized by others"], ["Purity analysis:", "purification method described elsewhere"]]}], "dhead": [["Normal melting temperature, K"]], "phases": ["Crystal 1", "Liquid"], "constr": ["Pressure of 1 atm"], "ref": {"title": "Fusion properties of some ionic quaternary ammonium compounds", "full": "Coker, T. G.; Ambrose, J.; Janz, G. J. (1970) J. Am. Chem. Soc. 92(18), 5293-5297."}}