{"title": "Phase transition properties: Normal melting temperature", "components": [{"formula": "C<SUB>16</SUB>H<SUB>28</SUB>ClN", "name": "1-decyl-3-methylpyridinium chloride", "mw": "269.86", "idout": "AAzuEi", "sample": [["Source:", "synthesized by others"], ["Purification:", "NMR (proton)"], ["Purity:", "99 mol %(dried by vacuum heating)"]]}], "dhead": [["Normal melting temperature, K"]], "footer": "", "solvent": null, "data": [[["348.7", "2.5"]]], "expmeth": "Visual observation", "constr": ["Pressure of 1 atm"], "ref": {"full": "Pereiro, A. B.; Rodriguez, A.; Blesic, M.; Shimizu, K.; Canongia Lopes, J. N.; Rebelo, L. P. N. (2011) J. Chem. Eng. Data 56(12), 4356-4363.", "title": "Mixtures of Pyridine and Nicotine with Pyridinium-Based Ionic Liquids"}, "phases": ["Crystal", "Liquid"]}