{"phases": ["Crystal", "Liquid"], "ref": {"title": "Heat of Formation of Hydroxylammonium Perchlorate by Combustion Calorimetry", "full": "Zimmer, M. F.; Baroody, E. E.; Carpenter, G. A.; Robb, R. A. (1968) J. Chem. Eng. Data 13(2), 212-214."}, "constr": ["Pressure of 1 atm"], "expmeth": "Visual observation", "data": [[["361.6", "1.1"]]], "solvent": null, "footer": "", "dhead": [["Normal melting temperature, K"]], "components": [{"formula": "ClH<SUB>4</SUB>NO<SUB>5</SUB>", "name": "hydroxylammonium perchlorate", "idout": "AAZimH", "mw": "133.48", "sample": [["Source:", "synthesized by the authors"], ["Purity:", "99.92 mol %(dried by vacuum heating;solvent extraction)"]]}], "title": "Phase transition properties: Normal melting temperature"}