{"dhead": [["Normal melting temperature, K"]], "components": [{"formula": "C<SUB>8</SUB>H<SUB>11</SUB>F<SUB>6</SUB>N<SUB>3</SUB>O<SUB>4</SUB>S<SUB>2</SUB>", "name": "1-ethyl-3-methylimidazolium bis((trifluoromethyl)sulfonyl)imide", "mw": "391.30", "idout": "ABXNZH", "sample": [["Source:", "synthesized by the authors"], ["Purification:", "estimated by the compiler"], ["Purity:", "97 mass %(dried by vacuum heating)"]]}], "title": "Phase transition properties: Normal melting temperature", "expmeth": "DSC/DTA", "solvent": null, "data": [[["257", "2"]]], "footer": "", "ref": {"title": "Pulsed-Gradient Spin-Echo 1H and 19F NMR Ionic Diffusion Coefficient, Viscosity, and Ionic Conductivity of Non-Chloroaluminate Room-Temperature Ionic Liquids", "full": "Noda, A.; Hayamizu, K.; Watanabe, M. (2001) J. Phys. Chem. B 105, 4603-4610."}, "constr": ["Pressure of 1 atm"], "phases": ["Metastable crystal", "Liquid"]}