{"phases": ["Crystal", "Liquid"], "ref": {"title": "Determination of phase transition points of ionic liquids by combination of thermal analysis and conductivity measurements at very low heating and cooling rates", "full": "Wachter, P.; Schreiner, C.; Schweiger, H.-G.; Gores, H. J. (2010) J. Chem. Thermodyn. 42(7), 900-903."}, "constr": ["Pressure of 1 atm"], "expmeth": "Heating/Cooling curves", "data": [[["267.7", "0.8"]]], "solvent": null, "footer": "", "dhead": [["Normal melting temperature, K"]], "components": [{"formula": "C<SUB>8</SUB>H<SUB>11</SUB>N<SUB>5</SUB>", "name": "1-ethyl-3-methylimidazolium dicyanamide", "mw": "177.21", "idout": "AAiEIE", "sample": [["Source:", "synthesized by the authors"], ["Initial purification:", "estimated by the compiler"], ["Initial purity:", "97 mass %"], ["Final purification:", "Karl Fischer titration"], ["Final purity:", "0.002 water mass %(de-gassed by evacuation)"]]}], "title": "Phase transition properties: Normal melting temperature"}