{"dhead": [["Normal melting temperature, K"]], "components": [{"idout": "ABiCtA", "mw": "447.41", "formula": "C<SUB>12</SUB>H<SUB>19</SUB>F<SUB>6</SUB>N<SUB>3</SUB>O<SUB>4</SUB>S<SUB>2</SUB>", "name": "1-hexyl-3-methylimidazolium bis[(trifluoromethyl)sulfonyl]imide", "sample": [["Purity analysis:", "unspecified"]]}], "title": "Phase transition properties: Normal melting temperature", "expmeth": "DSC/DTA", "solvent": null, "data": [[["262.6", "1.1"]]], "footer": "", "constr": ["Pressure of 1 atm"], "ref": {"title": "The effect of n vs. iso Isomerization on the thermophysical properties of aromatic and non-aromatic ionic liquids", "full": "Rodrigues, A. S. M. C.; Almeida, H. F. D.; Freire, M. G.; Lopes-da-Silva, J. A.; Coutinho, J. A. P.; Santos, L. M. N. B. F. (2016) Fluid Phase Equilib. 423, 190-202."}, "phases": ["Crystal", "Liquid"]}