{"dhead": [["Normal melting temperature, K"]], "components": [{"formula": "C<SUB>43</SUB>H<SUB>86</SUB>N<SUB>6</SUB>", "name": "dimethyl di-octadecyl dimethylguanidinium dicyanamide", "idout": "ACcIIP", "mw": "687.20", "sample": [["Source:", "synthesized by the authors"], ["Purification:", "NMR (proton)"], ["Purity:", "95 % (basis not specified)"]]}], "title": "Phase transition properties: Normal melting temperature", "expmeth": "Visual observation", "solvent": null, "data": [[["351.1", "1"]]], "footer": "", "constr": ["Pressure of 1 atm"], "ref": {"full": "Serbanovic, A.; Petrovski, Z.; Manic, M.; Marques, C. S.; Carrera, G. V. S. M.; Branco, L. C.; Afonso, C. A. M.; Nunes da Ponte, M. (2010) Fluid Phase Equilib. 294, 121-130.", "title": "Melting behaviour of ionic salts in the presence of high pressure CO2"}, "phases": ["Crystal", "Liquid"]}