{"expmeth": "DSC/DTA", "data": [[["434.35", "0.5"]]], "solvent": null, "footer": "", "dhead": [["Normal melting temperature, K"]], "components": [{"name": "1-(4-bromophenyl)-2,3,5-trimethylpyrazolium tetrafluoroborate", "formula": "C<SUB>12</SUB>H<SUB>14</SUB>BBrF<SUB>4</SUB>N<SUB>2</SUB>", "mw": "352.97", "idout": "ABPtPc", "sample": [["Source:", "synthesized by the authors"], ["Purification:", "estimated by the compiler"], ["Purity:", "98 mass %(crystallization from solution;dried by vacuum heating)"]]}], "title": "Phase transition properties: Normal melting temperature", "phases": ["Crystal", "Liquid"], "constr": ["Pressure of 1 atm"], "ref": {"title": "Tunable aryl alkyl ionic liquids (TAAILs) based on 1-aryl-3,5-dimethyl-1H-pyrazoles", "full": "Ozdemir, M. C.; Ozgun, B. (2017) J. Mol. Liq. 248, 314-321."}}