{"title": "Phase transition properties: Normal melting temperature", "components": [{"sample": [["Source:", "commercial source"], ["Purification:", "stated by supplier"], ["Purity:", "99 mass %"]], "idout": "ABDKGa", "mw": "287.08", "name": "lithium bis((trifluoromethyl)sulfonyl)amide", "formula": "C<SUB>2</SUB>F<SUB>6</SUB>LiNO<SUB>4</SUB>S<SUB>2</SUB>"}], "dhead": [["Normal melting temperature, K"]], "footer": "", "data": [[["506", "10"]]], "solvent": null, "expmeth": "DSC/DTA", "constr": ["Pressure of 1 atm"], "ref": {"title": "Thermal Properties of Mixed Alkali Bis(trifluoromethylsulfonyl)amides", "full": "Hagiwara, R.; Tamaki, K.; Kubota, K.; Goto, T.; Nohira, T. (2008) J. Chem. Eng. Data 53(2), 355-358."}, "phases": ["Crystal", "Liquid"]}