{"phases": ["Crystal 1", "Liquid"], "ref": {"full": "Parajo, J.J.; Villanueva, M.; Sanchez, P.B.; Salgado, J. (2018) J. Chem. Thermodyn. 126, 1-10.", "title": "Liquid window of some biologically-active ionic liquids"}, "constr": ["Pressure of 1 atm"], "expmeth": "DSC/DTA", "data": [[["312.1", "2"]]], "solvent": null, "footer": "", "dhead": [["Normal melting temperature, K"]], "components": [{"formula": "C<SUB>6</SUB>H<SUB>17</SUB>NO<SUB>3</SUB>S", "name": "diethylmethylammonium methanesulfonate", "mw": "183.27", "idout": "AAjMwZ", "sample": [["Source:", "commercial source"], ["Purification:", "stated by supplier"], ["Purity:", "98 mass %"], ["Purity analysis:", "dried by oven heating"]]}], "title": "Phase transition properties: Normal melting temperature"}