{"components": [{"sample": [["Source:", "synthesized by the authors"], ["Purification:", "mass spectrometry;Karl Fischer titration"], ["Purity:", "99 mol %;0.004 water mass %(dried by vacuum heating)"]], "name": "1-butyl-3-methylimidazolium hexafluorophosphate", "formula": "C<SUB>8</SUB>H<SUB>15</SUB>F<SUB>6</SUB>N<SUB>2</SUB>P", "idout": "ABChJv", "mw": "284.19"}], "title": "Phase transition properties: Normal melting temperature", "dhead": [["Normal melting temperature, K"]], "data": [[["283.1", "6"]]], "solvent": null, "footer": "", "expmeth": "DSC/DTA", "ref": {"full": "Tokuda, H.; Tsuzuki, S.; Susan, M. A. B. H.; Hayamizu, K.; Watanabe, M. (2006) J. Phys. Chem. B 110(39), 19593-19600.", "title": "How Ionic Are Room-Temperature Ionic Liquids? An Indicator of the Physicochemical Properties"}, "constr": ["Pressure of 1 atm"], "phases": ["Crystal", "Liquid"]}