{"data": [[["263.85", "0.41"]]], "solvent": null, "footer": "", "expmeth": "DSC/DTA", "components": [{"sample": [["Source:", "commercial source"], ["Initial purification:", "stated by supplier"], ["Initial purity:", "98 mass %"], ["Final purification:", "Karl Fischer titration"], ["Final purity:", "99.98 mass %(dried by vacuum heating)"]], "name": "1-ethyl-3-methyl-1H-imidazolium tricyanomethanide", "formula": "C<SUB>10</SUB>H<SUB>11</SUB>N<SUB>5</SUB>", "idout": "AAmkSk", "mw": "201.23"}], "title": "Phase transition properties: Normal melting temperature", "dhead": [["Normal melting temperature, K"]], "phases": ["Crystal 1", "Liquid"], "constr": ["Pressure of 1 atm"], "ref": {"title": "(Solid + liquid) and (liquid + liquid) phase equilibria of (IL + water) binary systems. The influence of the ionic liquid structure on mutual solubility", "full": "Krolikowska, M. (2014) Fluid Phase Equilib. 361, 273-281."}}