{"phases": ["Crystal", "Liquid"], "ref": {"full": "Abranches, Dinis O.; Silva, Liliana P.; Martins, Monia A.R.; Fernandez, Luis; Pinho, Simao P.; Coutinho, Joao A.P. (2019) Fluid Phase Equilib. 493, 120-126.", "title": "Can cholinium chloride form eutectic solvents with organic chloride-based salts?"}, "constr": ["Pressure of 1 atm"], "expmeth": "DSC/DTA", "data": [[["442", "0.5"]]], "solvent": null, "footer": "", "dhead": [["Normal melting temperature, K"]], "components": [{"formula": "C<SUB>6</SUB>H<SUB>16</SUB>ClNO", "name": "beta.-methylcholine chloride", "idout": "AAdcHU", "mw": "153.65", "sample": [["Source:", "commercial source"], ["Initial purification:", "stated by supplier"], ["Initial purity:", "98 mass %"], ["Final purification:", "Karl Fischer titration"], ["Final purity:", "0.06 water mass %(de-gassed by evacuation)"]]}], "title": "Phase transition properties: Normal melting temperature"}