{"title": "Phase transition properties: Normal melting temperature", "components": [{"sample": [["Source:", "synthesized by the authors"], ["Purification:", "NMR (proton)"], ["Purity:", "98 % (basis not specified)"]], "formula": "C<SUB>16</SUB>H<SUB>34</SUB>N<SUB>3</SUB>P", "name": "triethyloctylphosphonium 1,2,3-triazolide", "idout": "ABFeXE", "mw": "299.44"}], "dhead": [["Normal melting temperature, K"]], "footer": "", "solvent": null, "data": [[["339", "2"]]], "expmeth": "DSC/DTA", "constr": ["Pressure of 1 atm"], "ref": {"full": "Fillion, J.; Xia, H.; DeSilva, M. A.; Quiroz-Guzman, M.; Brennecke, J. (2016) J. Chem. Eng. Data 61(8), 2897-2914.", "title": "Phase transitions, decomposition temperatures, viscosities and densities of phosphonium, ammonium and imidazolium ionic liquids with aprotic heterocyclic anions"}, "phases": ["Crystal", "Liquid"]}