{"phases": ["Crystal", "Liquid"], "ref": {"full": "Mod, R. R.; Harris, J. A.; Skau, E. L. (1967) J. Chem. Eng. Data 12(1), 108-110.", "title": "Solubilities of the Cyclohexylamine Salts of the Odd and Even Normal CIO to CZO Fatty Acids in Benzene, Methanol, and Acetone"}, "constr": ["Pressure of 1 atm"], "expmeth": "Visual observation", "data": [[["357.65", "0.1"]]], "solvent": null, "footer": "", "dhead": [["Normal melting temperature, K"]], "components": [{"idout": "ABFeqq", "mw": "299.50", "name": "dodecanoic acid cyclohexanamine salt (1:1)", "formula": "C<SUB>18</SUB>H<SUB>37</SUB>NO<SUB>2</SUB>", "sample": [["Source:", "synthesized by the authors"], ["Purity analysis:", "crystallization from solution"]]}], "title": "Phase transition properties: Normal melting temperature"}