{"components": [{"sample": [["Source:", "synthesized by others"], ["Purity analysis:", "purification method described elsewhere"]], "name": "butyltris(3-methylbutyl)ammonium bromide", "formula": "C<SUB>19</SUB>H<SUB>42</SUB>BrN", "idout": "ABSEvj", "mw": "364.46"}], "title": "Phase transition properties: Normal melting temperature", "dhead": [["Normal melting temperature, K"]], "solvent": null, "data": [[["395.15", "0.5"]]], "footer": "", "expmeth": false, "ref": {"title": "Fusion properties of some ionic quaternary ammonium compounds", "full": "Coker, T. G.; Ambrose, J.; Janz, G. J. (1970) J. Am. Chem. Soc. 92(18), 5293-5297."}, "constr": ["Pressure of 1 atm"], "phases": ["Crystal 1", "Liquid"]}