{"title": "Phase transition properties: Normal melting temperature", "components": [{"idout": "AArZic", "mw": "226.11", "name": "N-methyl-N-(2-hydroxyethyl)morpholinium bromide", "formula": "C<SUB>7</SUB>H<SUB>16</SUB>BrNO<SUB>2</SUB>", "sample": [["Source:", "synthesized by the authors"], ["Purification:", "estimated by the compiler"], ["Purity:", "98 mass %(crystallization from solution)"]]}], "dhead": [["Normal melting temperature, K"]], "footer": "", "solvent": null, "data": [[["424.1", "2"]]], "expmeth": "Visual observation", "constr": ["Pressure of 1 atm"], "ref": {"title": "Synthesis of hydroxyethyl methyl morpholinium azide (HEM Morph)N3: A highly efficient new task specific azide-based ionic liquid and its dual application as an azide source and media for synthesis of some novel aromatic O-oxime ethers-1,2,3-triazole conjugates as a potential antihistaminic agents", "full": "Rad, M. N. S.; Behrouz, S.; Saremi, H.; Mohammadtaghi-Nezhad, J. (2020) J. Mol. Liq. 299, 112245."}, "phases": ["Crystal", "Liquid"]}