{"ref": {"full": "Sudholter, E. J. R.; Engberts, J. B. F. N.; de Jeu, W. H. (1982) J. Phys. Chem. 86, 1908-13.", "title": "Thermotropic liquid-crystalline behavior of some single- and double-chained pyridinium amphiphiles"}, "constr": ["Pressure of 1 atm"], "phases": ["Crystal", "Liquid"], "title": "Phase transition properties: Normal melting temperature", "components": [{"sample": [["Source:", "synthesized by the authors"]], "name": "4-nonylpyridium chloride", "formula": "C<SUB>14</SUB>H<SUB>24</SUB>ClN", "mw": "241.80", "idout": "AAuaow"}], "dhead": [["Normal melting temperature, K"]], "footer": "", "data": [[["392.6", "1.5"]]], "solvent": null, "expmeth": false}