{"constr": ["Pressure of 1 atm"], "ref": {"full": "Vatascin, Erika; Dohnal, Vladimir (2018) J. Chem. Thermodyn. 119, 114-126.", "title": "Aqueous solutions of [EMIM] 1,1,2,2-tetrafluoroethanesulfonate and [EMIM] trifluoromethanesulfonate: A thermodynamic study"}, "phases": ["Crystal", "Liquid"], "title": "Phase transition properties: Normal melting temperature", "components": [{"idout": "ABEKef", "mw": "292.25", "name": "1-ethyl-3-methyl-1H-imidazolium 1,1,2,2-tetrafluoroethane-1-sulfonate", "formula": "C<SUB>8</SUB>H<SUB>12</SUB>F<SUB>4</SUB>N<SUB>2</SUB>O<SUB>3</SUB>S", "sample": [["Source:", "commercial source"], ["Initial purification:", "stated by supplier"], ["Initial purity:", "99.9 % (basis not specified)"], ["Final purification:", "Karl Fischer titration"], ["Final purity:", "0.0035 water mass %(de-gassed by evacuation;dried by vacuum heating)"]]}], "dhead": [["Normal melting temperature, K"]], "footer": "", "solvent": null, "data": [[["317.6", "1.1"]]], "expmeth": "DSC/DTA"}