{"title": "Phase transition properties: Normal melting temperature", "components": [{"sample": [["Source:", "synthesized by the authors"], ["Purification:", "estimated by the compiler;Karl Fischer titration"], ["Purity:", "98 mass %;0.2108 water mass %"]], "name": "1,3-dimethylimidazolium acetate", "formula": "C<SUB>7</SUB>H<SUB>12</SUB>N<SUB>2</SUB>O<SUB>2</SUB>", "mw": "156.19", "idout": "AAeBvd"}], "dhead": [["Normal melting temperature, K"]], "footer": "", "data": [[["311.1", "1"]]], "solvent": null, "expmeth": "Visual observation", "constr": ["Pressure of 1 atm"], "ref": {"full": "Brunig, T.; Krekic, K.; Bruhn, C.; Pietschnig, R. (2016) Chem. Eur. J. 22(45), 16200-16212.", "title": "Calorimetric Studies and Structural Aspects of Ionic Liquids in Designing Sorption Materials for Thermal Energy Storage"}, "phases": ["Crystal", "Liquid"]}