{"phases": ["Crystal", "Liquid"], "constr": ["Pressure of 1 atm"], "ref": {"title": "New Energetic Salts Based on Nitrogen-Containing Heterocycles", "full": "Xue, H.; Gao, Y.; Twamley, B.; Shreeve, J. M. (2005) Chem. Mater. 17, 191-198."}, "expmeth": "DSC/DTA", "solvent": null, "data": [[["328.1", "1"]]], "footer": "", "dhead": [["Normal melting temperature, K"]], "components": [{"name": "3-azido-1-methyl-1H-1,2,4-triazol-1-ium perchlorate", "formula": "C<SUB>3</SUB>H<SUB>5</SUB>ClN<SUB>6</SUB>O<SUB>4</SUB>", "mw": "224.56", "idout": "AArJLo", "sample": [["Source:", "synthesized by the authors"], ["Purification:", "estimated by the compiler"], ["Purity:", "98 mol %"]]}], "title": "Phase transition properties: Normal melting temperature"}