{"components": [{"sample": [["Source:", "synthesized by the authors"], ["Purification:", "estimated by the compiler"], ["Purity:", "97 mass %(dried by vacuum heating)"]], "formula": "C<SUB>6</SUB>H<SUB>7</SUB>F<SUB>6</SUB>N<SUB>3</SUB>O<SUB>4</SUB>S<SUB>2</SUB>", "name": "1-methylimidazolium bis(trifluoromethylsulfonyl)imide", "idout": "ABRszH", "mw": "363.25"}], "title": "Phase transition properties: Normal melting temperature", "dhead": [["Normal melting temperature, K"]], "data": [[["316.1", "2"]]], "solvent": null, "footer": "", "expmeth": "DSC/DTA", "ref": {"full": "Fadeeva, Yu.A.; Gruzdev, M.S.; Kudryakova, N.O.; Shmukler, L.E.; Safonova, L.P. (2020) J. Mol. Liq. 297, 111305.", "title": "Physico-chemical characterization of alkyl-imidazolium protic ionic liquids"}, "constr": ["Pressure of 1 atm"], "phases": ["Crystal", "Liquid"]}