{"constr": ["Pressure of 1 atm"], "ref": {"title": "New Energetic Salts Based on Nitrogen-Containing Heterocycles", "full": "Xue, H.; Gao, Y.; Twamley, B.; Shreeve, J. M. (2005) Chem. Mater. 17, 191-198."}, "phases": ["Crystal", "Liquid"], "title": "Phase transition properties: Normal melting temperature", "components": [{"idout": "AAoZGI", "mw": "210.53", "formula": "C<SUB>2</SUB>H<SUB>3</SUB>ClN<SUB>6</SUB>O<SUB>4</SUB>", "name": "3-azido-1H-1,2,4-triazol-1-ium perchlorate", "sample": [["Source:", "synthesized by the authors"], ["Purification:", "estimated by the compiler"], ["Purity:", "98 mol %"]]}], "dhead": [["Normal melting temperature, K"]], "footer": "", "data": [[["396.1", "1"]]], "solvent": null, "expmeth": "DSC/DTA"}