{"expmeth": "DSC/DTA", "data": [[["325.1", "1"]]], "solvent": null, "footer": "", "dhead": [["Normal melting temperature, K"]], "components": [{"mw": "263.28", "idout": "AAygrA", "name": "N-ethylpiperidinium trifluoromethanesulfonate", "formula": "C<SUB>8</SUB>H<SUB>16</SUB>F<SUB>3</SUB>NO<SUB>3</SUB>S", "sample": [["Source:", "synthesized by the authors"], ["Purification:", "estimated by the compiler"], ["Purity:", "97 mass %(dried by vacuum heating)"]]}], "title": "Phase transition properties: Normal melting temperature", "phases": ["Crystal", "Liquid"], "constr": ["Pressure of 1 atm"], "ref": {"full": "Nakamoto, H.; Watanabe, M. (2007) Chem. Commun. No. 24, 2539-2541.", "title": "Bronsted acid-base ionic liquids for fuel cell electrolytes"}}