{"phases": ["Crystal", "Liquid"], "constr": ["Pressure of 1 atm"], "ref": {"full": "Elias, Horst; Strecker, Helmut (1966) Chem. Ber. 99(3), 1019-25.", "title": "Kinetics of homogeneous isotope exchange between isopropyl chloride and chloride ions in dimethylformamide"}, "expmeth": "Visual observation", "solvent": null, "data": [[["365.1", "0"]]], "footer": "", "dhead": [["Normal melting temperature, K"]], "components": [{"formula": "C<SUB>16</SUB>H<SUB>36</SUB>ClN", "name": "tetrabutylammonium chloride", "mw": "277.92", "idout": "ABBXWo", "sample": [["Purification:", "not known"]]}], "title": "Phase transition properties: Normal melting temperature"}