{"constr": ["Pressure of 1 atm"], "ref": {"title": "Solid-liquid phase behavior of mixtures of 1-alkyl-3-methylimidazolium bis(trifluoromethylsulfonyl)amides involving long alkyl side chains", "full": "Stolarska, O.; Pawlowska-Zygarowicz, A.; Rodriguez, H.; Frydrych-Tomczak, E.; Smiglak, M. (2021) J. Mol. Liq. 339, 116805."}, "phases": ["Crystal", "Liquid"], "title": "Phase transition properties: Normal melting temperature", "components": [{"name": "1-ethyl-3-methylimidazolium bis((trifluoromethyl)sulfonyl)imide", "formula": "C<SUB>8</SUB>H<SUB>11</SUB>F<SUB>6</SUB>N<SUB>3</SUB>O<SUB>4</SUB>S<SUB>2</SUB>", "mw": "391.30", "idout": "ABXNZH", "sample": [["Source:", "commercial source"], ["Initial purification:", "stated by supplier"], ["Initial purity:", "99 mass %"], ["Final purification:", "Karl Fischer titration"], ["Final purity:", "0.1 water mass %(dried by vacuum heating)"]]}], "dhead": [["Normal melting temperature, K"]], "footer": "", "data": [[["263.1", "2"]]], "solvent": null, "expmeth": "DSC/DTA"}