{"components": [{"formula": "C<SUB>8</SUB>H<SUB>18</SUB>F<SUB>2</SUB>N<SUB>2</SUB>O<SUB>4</SUB>S<SUB>2</SUB>", "name": "1-methyl-1-propylpyrrolidinium bis(fluorosulfonyl)amide", "idout": "ABHPAi", "mw": "308.36", "sample": [["Source:", "commercial source"], ["Purification:", "stated by supplier"], ["Purity:", "99.9 mass %"], ["Purity analysis:", "dried by vacuum heating"]]}], "title": "Phase transition properties: Normal melting temperature", "dhead": [["Normal melting temperature, K"]], "data": [[["269", "1"]]], "solvent": null, "footer": "", "expmeth": "DSC/DTA", "constr": ["Pressure of 1 atm"], "ref": {"title": "Physicochemical and Electrochemical Properties of K[N(SO2F)2]-[N-Methyl-N-propylpyrrolidinium][N(SO2F)2] Ionic Liquids for Potassium-Ion Batteries", "full": "Yamamoto, T.; Matsumoto, K.; Hagiwara, R.; Nohira, T. (2017) J. Phys. Chem. C 121(34), 18450-18458."}, "phases": ["Crystal 1", "Liquid"]}