{"title": "Phase transition properties: Normal melting temperature", "components": [{"sample": [["Source:", "synthesized by the authors"], ["Purification:", "Karl Fischer titration"], ["Purity:", "0.48 water mass %(dried by vacuum heating)"]], "name": "ethanolammonium methyl sulfate", "formula": "C<SUB>3</SUB>H<SUB>11</SUB>NO<SUB>5</SUB>S", "mw": "173.18", "idout": "AAhPdP"}], "dhead": [["Normal melting temperature, K"]], "footer": "", "data": [[["372.1", "5"]]], "solvent": null, "expmeth": "DSC/DTA", "constr": ["Pressure of 1 atm"], "ref": {"title": "Protic Ionic Liquids: Solvents with Tunable Phase Behavior and Physicochemical  Properties", "full": "Greaves, T. L.; Weerawardena, A.; Fong, C.; Krodkiewska, I.; Drummond, C. J. (2006) J. Phys. Chem. B 110(45), 22479-22487."}, "phases": ["Crystal", "Liquid"]}