{"constr": ["Pressure of 1 atm"], "ref": {"title": "Functionalization of fluorinated ionic liquids: A combined experimental-theoretical study", "full": "Ferreira, Margarida L.; Araujo, Joao M. M.; Vega, Lourdes F.; Llovell, Felix; Pereiro, Ana B. (2020) J. Mol. Liq. 302, 112489."}, "phases": ["Crystal", "Liquid"], "dhead": [["Normal melting temperature, K"]], "components": [{"formula": "C<SUB>11</SUB>H<SUB>11</SUB>F<SUB>9</SUB>N<SUB>2</SUB>O<SUB>3</SUB>", "name": "1-(2-hydroxyethyl)-3-methylimidazolium perfluoropentanoate", "mw": "390.21", "idout": "ABXCRi", "sample": [["Source:", "synthesized by the authors"], ["Purification:", "NMR (proton);Karl Fischer titration"], ["Purity:", "98 mass %;0.01 water mass %(dried by vacuum heating)"]]}], "title": "Phase transition properties: Normal melting temperature", "expmeth": "DSC/DTA", "data": [[["294.8", "4"]]], "solvent": null, "footer": ""}