{"constr": ["Pressure of 1 atm"], "ref": {"full": "Coker, T. G.; Ambrose, J.; Janz, G. J. (1970) J. Am. Chem. Soc. 92(18), 5293-5297.", "title": "Fusion properties of some ionic quaternary ammonium compounds"}, "phases": ["Crystal 1", "Liquid"], "title": "Phase transition properties: Normal melting temperature", "components": [{"mw": "509.65", "idout": "ABuAum", "name": "diheptyldihexylammonium iodide", "formula": "C<SUB>26</SUB>H<SUB>56</SUB>IN", "sample": [["Source:", "synthesized by others"], ["Purity analysis:", "crystallization from solution"]]}], "dhead": [["Normal melting temperature, K"]], "footer": "", "data": [[["373.15", "0.5"]]], "solvent": null, "expmeth": false}