{"ref": {"title": "A differential thermal analysis study of phase transitions in some mercury(II) carboxylates", "full": "Adeosun, S. O. (1978) J. Therm. Anal. 14, 235-43."}, "constr": ["Pressure of 1 atm"], "phases": ["Crystal", "Liquid"], "title": "Phase transition properties: Normal melting temperature", "components": [{"name": "mercury(II) dodecanoate", "formula": "C<SUB>24</SUB>H<SUB>46</SUB>HgO<SUB>4</SUB>", "idout": "ACLMPY", "mw": "599.22", "sample": [["Source:", "synthesized by the authors"], ["Purification:", "spectroscopy"], ["Purity analysis:", "chemical reagent treatment"]]}], "dhead": [["Normal melting temperature, K"]], "footer": "", "data": [[["394.2", "0.5"]]], "solvent": null, "expmeth": false}