{"ref": {"title": "Tunable aryl alkyl ionic liquids (TAAILs) based on 1-aryl-3,5-dimethyl-1H-pyrazoles", "full": "Ozdemir, M. C.; Ozgun, B. (2017) J. Mol. Liq. 248, 314-321."}, "constr": ["Pressure of 1 atm"], "phases": ["Crystal", "Liquid"], "title": "Phase transition properties: Normal melting temperature", "components": [{"sample": [["Source:", "synthesized by the authors"], ["Purification:", "estimated by the compiler"], ["Purity:", "98 mass %(crystallization from solution;dried by vacuum heating)"]], "name": "2,3,5-trimethyl-1-(4-methoxyphenyl)-pyrazolium tetrafluoroborate", "formula": "C<SUB>13</SUB>H<SUB>17</SUB>BF<SUB>4</SUB>N<SUB>2</SUB>O", "idout": "ABGYwr", "mw": "304.10"}], "dhead": [["Normal melting temperature, K"]], "footer": "", "data": [[["348.75", "0.5"]]], "solvent": null, "expmeth": "DSC/DTA"}