{"constr": ["Pressure of 1 atm"], "ref": {"title": "Binary mixtures of ionic liquids based on EMIm cation and fluorinated anions: physico-chemical characterization in view of their application as low-temperature electrolytes", "full": "Yambou, E. P.; Gorska, B.; Beguin, F. (2020) J. Mol. Liq. 298, 111959."}, "phases": ["Crystal", "Liquid"], "title": "Phase transition properties: Normal melting temperature", "components": [{"sample": [["Source:", "commercial source"], ["Purification:", "stated by supplier"], ["Purity:", "99.9 mass %"]], "idout": "ABEAsp", "mw": "291.29", "name": "1-ethyl-3-methyl-1H-imidazolium bis(fluorosulfonyl)amide", "formula": "C<SUB>6</SUB>H<SUB>11</SUB>F<SUB>2</SUB>N<SUB>3</SUB>O<SUB>4</SUB>S<SUB>2</SUB>"}], "dhead": [["Normal melting temperature, K"]], "footer": "", "solvent": null, "data": [[["259.1", "2"]]], "expmeth": "DSC/DTA"}