{"constr": ["Pressure of 1 atm"], "ref": {"title": "Melting behaviour of ionic salts in the presence of high pressure CO2", "full": "Serbanovic, A.; Petrovski, Z.; Manic, M.; Marques, C. S.; Carrera, G. V. S. M.; Branco, L. C.; Afonso, C. A. M.; Nunes da Ponte, M. (2010) Fluid Phase Equilib. 294, 121-130."}, "phases": ["Crystal", "Liquid"], "title": "Phase transition properties: Normal melting temperature", "components": [{"sample": [["Source:", "synthesized by the authors"], ["Purification:", "NMR (proton)"], ["Purity:", "95 % (basis not specified)"]], "formula": "C<SUB>6</SUB>H<SUB>11</SUB>F<SUB>6</SUB>N<SUB>2</SUB>P", "name": "1-ethyl-3-methylimidazolium hexafluorophosphate", "mw": "256.13", "idout": "AAxNbY"}], "dhead": [["Normal melting temperature, K"]], "footer": "", "solvent": null, "data": [[["333.1", "1"]]], "expmeth": "Visual observation"}