{"expmeth": "DSC/DTA", "data": [[["383.3", "2.3"]]], "solvent": null, "footer": "", "dhead": [["Normal melting temperature, K"]], "components": [{"mw": "380.13", "idout": "ABVFmC", "formula": "C<SUB>12</SUB>H<SUB>20</SUB>Br<SUB>2</SUB>N<SUB>4</SUB>", "name": "1,2-bis(2,3-dimethylimidazolium-1-yl)ethane dibromide", "sample": [["Source:", "synthesized by the authors"], ["Purification:", "estimated by the compiler"], ["Purity:", "98 mass %(dried by vacuum heating;solvent extraction)"]]}], "title": "Phase transition properties: Normal melting temperature", "phases": ["Crystal", "Liquid"], "constr": ["Pressure of 1 atm"], "ref": {"title": "Design, Synthesis, and Analysis of Thermophysical Properties for Imidazolium-Based Geminal Dicationic Ionic Liquids", "full": "Zhang, H.; Li, M.; Yang, B. (2018) J. Phys. Chem. C 122(5), 2467-2474."}}