{"components": [{"name": "3-(2,3-bis(dodecylthio)propyl)-1-methylimidazolium chloride", "formula": "C<SUB>31</SUB>H<SUB>61</SUB>ClN<SUB>2</SUB>S<SUB>2</SUB>", "idout": "ACDyeq", "mw": "561.41", "sample": [["Source:", "synthesized by the authors"], ["Purification:", "estimated by the compiler"], ["Purity:", "98 mass %(crystallization from solution)"]]}], "title": "Phase transition properties: Normal melting temperature", "dhead": [["Normal melting temperature, K"]], "data": [[["313.9", "1.1"]]], "solvent": null, "footer": "", "expmeth": "DSC/DTA", "ref": {"full": "Burton, Rachel D.; Siegel, David J.; Muller II, Joseph E.; Regner, Matthew; Sheng, Yinghong; McManus, Gregory J.; MacDonald Jr., James H.; Mirjafari, Arsalan (2019) J. Mol. Liq. 296, 111758.", "title": "From gene delivery agents to ionic liquids: The impacts of cation structure and anion identity on liquefaction"}, "constr": ["Pressure of 1 atm"], "phases": ["Crystal", "Liquid"]}