{"components": [{"name": "1-methyl-1-propylpyrrolidinium triflate", "formula": "C<SUB>9</SUB>H<SUB>18</SUB>F<SUB>3</SUB>NO<SUB>3</SUB>S", "mw": "277.30", "idout": "ABBRLz", "sample": [["Source:", "commercial source"], ["Initial purification:", "stated by supplier"], ["Initial purity:", "99 mass %"], ["Final purification:", "Karl Fischer titration;DSC"], ["Final purity:", "0.025 water mass %;99 mass %(dried by vacuum heating)"]]}], "title": "Phase transition properties: Normal melting temperature", "dhead": [["Normal melting temperature, K"]], "data": [[["350.7", "0.5"]]], "solvent": null, "footer": "", "expmeth": "Visual observation", "ref": {"full": "Domanska, U.; Roguszewska, M.; Krolikowski, M.; Ramjugernath, D.; Naidoo, P. (2015) J. Chem. Thermodyn. 83, 90-96.", "title": "Phase equilibria study of binary systems comprising an (ionic liquid + hydrocarbon)"}, "constr": ["Pressure of 1 atm"], "phases": ["Crystal 1", "Liquid"]}