{"constr": ["Pressure of 1 atm"], "ref": {"full": "Zhou, Q.; Fitzgerald, K.; Boyle, P. D.; Henderson, W. A. (2010) Chem. Mater. 22(3), 1203-1208.", "title": "Phase Behavior and Crystalline Phases of Ionic Liquid-Lithium Salt Mixtures with 1-Alkyl-3-methylimidazolium Salts"}, "phases": ["Crystal", "Liquid"], "components": [{"sample": [["Source:", "commercial source"], ["Purification:", "stated by supplier"], ["Purity:", "99 mass %"]], "formula": "C<SUB>2</SUB>F<SUB>6</SUB>LiNO<SUB>4</SUB>S<SUB>2</SUB>", "name": "lithium bis((trifluoromethyl)sulfonyl)amide", "idout": "ABDKGa", "mw": "287.08"}], "title": "Phase transition properties: Normal melting temperature", "dhead": [["Normal melting temperature, K"]], "solvent": null, "data": [[["509", "10"]]], "footer": "", "expmeth": "Phase equilibration"}