{"constr": ["Pressure of 1 atm"], "ref": {"title": "Phase equilibria of water and ionic liquids [emim][PF6] and [bmim][PF6]", "full": "Wong, D. S. H.; Chen, J. P.; Chang, J. M.; Chou, C. H. (2002) Fluid Phase Equilib. 194-197, 1089-1095."}, "phases": ["Crystal", "Liquid"], "dhead": [["Normal melting temperature, K"]], "components": [{"name": "1-ethyl-3-methylimidazolium hexafluorophosphate", "formula": "C<SUB>6</SUB>H<SUB>11</SUB>F<SUB>6</SUB>N<SUB>2</SUB>P", "idout": "AAxNbY", "mw": "256.13", "sample": [["Source:", "commercial source"], ["Purification:", "stated by supplier"], ["Purity:", "97 % (basis not specified)"]]}], "title": "Phase transition properties: Normal melting temperature", "expmeth": "DSC/DTA", "data": [[["333", "3"]]], "solvent": null, "footer": ""}