{"ref": {"title": "Physico-chemical characterization of alkyl-imidazolium protic ionic liquids", "full": "Fadeeva, Yu.A.; Gruzdev, M.S.; Kudryakova, N.O.; Shmukler, L.E.; Safonova, L.P. (2020) J. Mol. Liq. 297, 111305."}, "constr": ["Pressure of 1 atm"], "phases": ["Crystal", "Liquid"], "title": "Phase transition properties: Normal melting temperature", "components": [{"formula": "C<SUB>8</SUB>H<SUB>13</SUB>F<SUB>3</SUB>N<SUB>2</SUB>O<SUB>3</SUB>S", "name": "N-butylimidazolium trifluoromethanesulfonate", "idout": "ABAmzS", "mw": "274.26", "sample": [["Source:", "synthesized by the authors"], ["Purification:", "estimated by the compiler"], ["Purity:", "97 mass %(dried by vacuum heating)"]]}], "dhead": [["Normal melting temperature, K"]], "footer": "", "data": [[["296.1", "2"]]], "solvent": null, "expmeth": "DSC/DTA"}