{"ref": {"title": "Experimental and Theoretical Study of 1,5-Diamino-4-H-1,2,3,4-Tetrazolium Perchlorate", "full": "Drake, G. W.; Hawkins, T. W.; Boatz, J.; Hall, L.; Vij, A. (2005) Propellants Explos. Pyrotech. 30(2), 156-163."}, "constr": ["Pressure of 1 atm"], "phases": ["Crystal", "Liquid"], "components": [{"sample": [["Source:", "synthesized by the authors"], ["Purity analysis:", "crystallization from melt;purification method described elsewhere"]], "idout": "AAmdRF", "mw": "200.54", "formula": "CH<SUB>5</SUB>ClN<SUB>6</SUB>O<SUB>4</SUB>", "name": "1,5-diamino-4H-1,2,3,4-tetrazolium perchlorate"}], "title": "Phase transition properties: Normal melting temperature", "dhead": [["Normal melting temperature, K"]], "data": [[["401.1", "9"]]], "solvent": null, "footer": "", "expmeth": "DSC/DTA"}