{"constr": ["Pressure of 1 atm"], "ref": {"title": "Energetic Ionic Liquids from Azido Derivatives of 1,2,4-Triazole", "full": "Xue, H.; Shreeve, J. (2005) Adv. Mater. Res. 17, 2142-2146."}, "phases": ["Crystal", "Liquid"], "title": "Phase transition properties: Normal melting temperature", "components": [{"mw": "238.59", "idout": "AAttpO", "name": "1-(2-azidoethyl)-1H-1,2,4-triazol-1-ium perchlorate", "formula": "C<SUB>4</SUB>H<SUB>7</SUB>ClN<SUB>6</SUB>O<SUB>4</SUB>", "sample": [["Source:", "synthesized by the authors"], ["Purification:", "estimated by the compiler"], ["Purity:", "99 % (basis not specified)"]]}], "dhead": [["Normal melting temperature, K"]], "footer": "", "data": [[["217.1", "1"]]], "solvent": null, "expmeth": "DSC/DTA"}