{"ref": {"title": "Density and Refractive Index for Binary Systems of the Ionic Liquid [Bmim][BF4] with Methanol, 1,3-Dichloropropane, and Dimethyl Carbonate", "full": "Iglesias-Otero, M. A.; Troncoso, J.; Carballo, E. (2007) J. Solution Chem. 36, 1219-1230."}, "constr": [], "phases": ["Liquid"], "title": "Volumetric properties: Specific density", "components": [{"mw": "112.98", "idout": "AAVlJf", "formula": "C<SUB>3</SUB>H<SUB>6</SUB>Cl<SUB>2</SUB>", "name": "1,3-dichloropropane", "sample": [["Source:", "commercial source"], ["Purification:", "stated by supplier"], ["Purity:", "99 % (basis not specified)"]]}, {"sample": [["Source:", "commercial source"], ["Purification:", "stated by supplier"], ["Initial purity:", "99.8 % (basis not specified)"], ["Final purity:", "0.08 halide impurity mass %(dried by vacuum heating)"]], "mw": "226.03", "idout": "AArYBF", "name": "1-butyl-3-methylimidazolium tetrafluoroborate", "formula": "C<SUB>8</SUB>H<SUB>15</SUB>BF<SUB>4</SUB>N<SUB>2</SUB>"}], "dhead": [["Temperature, K", null], ["Mole fraction of 1-butyl-3-methylimidazolium tetrafluoroborate", "Liquid"], ["Pressure, kPa", null], ["Specific density, kg/m<SUP>3</SUP>", "Liquid"]], "footer": "", "solvent": null, "data": [[["293.15"], ["0"], ["101"], ["1185.3", "1.1"]], [["293.15"], ["0.0536"], ["101"], ["1189.9", "1.1"]], [["293.15"], ["0.1135"], ["101"], ["1193.3", "1.1"]], [["293.15"], ["0.1516"], ["101"], ["1195.1", "1.1"]], [["293.15"], ["0.2101"], ["101"], ["1197.4", "1.1"]], [["293.15"], ["0.2817"], ["101"], ["1199.5", "1"]], [["293.15"], ["0.3528"], ["101"], ["1201.1", "1"]], [["293.15"], ["0.4042"], ["101"], ["1201.9", "1"]], [["293.15"], ["0.4626"], ["101"], ["1202.7", "1"]], [["293.15"], ["0.5254"], ["101"], ["1203.3", "1"]], [["293.15"], ["0.5466"], ["101"], ["1203.5", "1"]], [["293.15"], ["0.5955"], ["101"], ["1203.8", "1"]], [["293.15"], ["0.6786"], ["101"], ["1204.3", "0.9"]], [["293.15"], ["0.7863"], ["101"], ["1204.7", "0.9"]], [["293.15"], ["0.9028"], ["101"], ["1204.8", "0.9"]], [["293.15"], ["1"], ["101"], ["1204.9", "0.9"]], [["298.15"], ["0"], ["101"], ["1179.1", "1.1"]], [["298.15"], ["0.0536"], ["101"], ["1184.1", "1.1"]], [["298.15"], ["0.1135"], ["101"], ["1187.8", "1.1"]], [["298.15"], ["0.1516"], ["101"], ["1189.8", "1.1"]], [["298.15"], ["0.2101"], ["101"], ["1192.3", "1"]], [["298.15"], ["0.2817"], ["101"], ["1194.7", "1"]], [["298.15"], ["0.3528"], ["101"], ["1196.5", "1"]], [["298.15"], ["0.4042"], ["101"], ["1197.5", "1"]], [["298.15"], ["0.4626"], ["101"], ["1198.4", "1"]], [["298.15"], ["0.5254"], ["101"], ["1199.1", "1"]], [["298.15"], ["0.5466"], ["101"], ["1199.4", "1"]], [["298.15"], ["0.5955"], ["101"], ["1199.8", "1"]], [["298.15"], ["0.6786"], ["101"], ["1200.3", "0.9"]], [["298.15"], ["0.7863"], ["101"], ["1200.9", "0.9"]], [["298.15"], ["0.9028"], ["101"], ["1201.2", "0.9"]], [["298.15"], ["1"], ["101"], ["1201.4", "0.9"]], [["303.15"], ["0"], ["101"], ["1172.9", "1.1"]], [["303.15"], ["0.0536"], ["101"], ["1178.3", "1.1"]], [["303.15"], ["0.1135"], ["101"], ["1182.3", "1"]], [["303.15"], ["0.1516"], ["101"], ["1184.5", "1"]], [["303.15"], ["0.2101"], ["101"], ["1187.3", "1"]], [["303.15"], ["0.2817"], ["101"], ["1189.9", "1"]], [["303.15"], ["0.3528"], ["101"], ["1192", "1"]], [["303.15"], ["0.4042"], ["101"], ["1193.1", "1"]], [["303.15"], ["0.4626"], ["101"], ["1194.1", "1"]], [["303.15"], ["0.5254"], ["101"], ["1195", "1"]], [["303.15"], ["0.5466"], ["101"], ["1195.3", "0.9"]], [["303.15"], ["0.5955"], ["101"], ["1195.7", "0.9"]], [["303.15"], ["0.6786"], ["101"], ["1196.4", "0.9"]], [["303.15"], ["0.7863"], ["101"], ["1197.1", "0.9"]], [["303.15"], ["0.9028"], ["101"], ["1197.6", "0.9"]], [["303.15"], ["1"], ["101"], ["1197.8", "0.9"]], [["308.15"], ["0"], ["101"], ["1166.7", "1"]], [["308.15"], ["0.0536"], ["101"], ["1172.5", "1"]], [["308.15"], ["0.1135"], ["101"], ["1176.9", "1"]], [["308.15"], ["0.1516"], ["101"], ["1179.3", "1"]], [["308.15"], ["0.2101"], ["101"], ["1182.3", "1"]], [["308.15"], ["0.2817"], ["101"], ["1185.2", "1"]], [["308.15"], ["0.3528"], ["101"], ["1187.4", "1"]], [["308.15"], ["0.4042"], ["101"], ["1188.7", "1"]], [["308.15"], ["0.4626"], ["101"], ["1189.9", "1"]], [["308.15"], ["0.5254"], ["101"], ["1190.8", "0.9"]], [["308.15"], ["0.5466"], ["101"], ["1191.2", "0.9"]], [["308.15"], ["0.5955"], ["101"], ["1191.7", "0.9"]], [["308.15"], ["0.6786"], ["101"], ["1192.5", "0.9"]], [["308.15"], ["0.7863"], ["101"], ["1193.4", "0.9"]], [["308.15"], ["0.9028"], ["101"], ["1193.9", "0.9"]], [["308.15"], ["1"], ["101"], ["1194.2", "0.9"]], [["313.15"], ["0"], ["101"], ["1160.4", "1"]], [["313.15"], ["0.0536"], ["101"], ["1166.7", "1"]], [["313.15"], ["0.1135"], ["101"], ["1171.4", "1"]], [["313.15"], ["0.1516"], ["101"], ["1174", "1"]], [["313.15"], ["0.2101"], ["101"], ["1177.3", "1"]], [["313.15"], ["0.2817"], ["101"], ["1180.4", "1"]], [["313.15"], ["0.3528"], ["101"], ["1182.9", "1"]], [["313.15"], ["0.4042"], ["101"], ["1184.3", "1"]], [["313.15"], ["0.4626"], ["101"], ["1185.6", "0.9"]], [["313.15"], ["0.5254"], ["101"], ["1186.7", "0.9"]], [["313.15"], ["0.5466"], ["101"], ["1187.1", "0.9"]], [["313.15"], ["0.5955"], ["101"], ["1187.7", "0.9"]], [["313.15"], ["0.6786"], ["101"], ["1188.7", "0.9"]], [["313.15"], ["0.7863"], ["101"], ["1189.6", "0.9"]], [["313.15"], ["0.9028"], ["101"], ["1190.3", "0.9"]], [["313.15"], ["1"], ["101"], ["1190.7", "0.9"]], [["318.15"], ["0"], ["101"], ["1154.2", "1"]], [["318.15"], ["0.0536"], ["101"], ["1160.9", "1"]], [["318.15"], ["0.1135"], ["101"], ["1166", "1"]], [["318.15"], ["0.1516"], ["101"], ["1168.7", "1"]], [["318.15"], ["0.2101"], ["101"], ["1172.3", "1"]], [["318.15"], ["0.2817"], ["101"], ["1175.7", "1"]], [["318.15"], ["0.3528"], ["101"], ["1178.4", "0.9"]], [["318.15"], ["0.4042"], ["101"], ["1179.9", "0.9"]], [["318.15"], ["0.4626"], ["101"], ["1181.4", "0.9"]], [["318.15"], ["0.5254"], ["101"], ["1182.6", "0.9"]], [["318.15"], ["0.5466"], ["101"], ["1183", "1"]], [["318.15"], ["0.5955"], ["101"], ["1183.7", "0.9"]], [["318.15"], ["0.6786"], ["101"], ["1184.8", "0.9"]], [["318.15"], ["0.7863"], ["101"], ["1185.9", "0.9"]], [["318.15"], ["0.9028"], ["101"], ["1186.7", "0.9"]], [["318.15"], ["1"], ["101"], ["1187.2", "0.8"]], [["323.15"], ["0"], ["101"], ["1147.9", "1"]], [["323.15"], ["0.0536"], ["101"], ["1155", "1"]], [["323.15"], ["0.1135"], ["101"], ["1160.5", "1"]], [["323.15"], ["0.1516"], ["101"], ["1163.4", "1"]], [["323.15"], ["0.2101"], ["101"], ["1167.3", "1"]], [["323.15"], ["0.2817"], ["101"], ["1171", "1"]], [["323.15"], ["0.3528"], ["101"], ["1173.9", "0.9"]], [["323.15"], ["0.4042"], ["101"], ["1175.6", "0.9"]], [["323.15"], ["0.4626"], ["101"], ["1177.1", "0.9"]], [["323.15"], ["0.5254"], ["101"], ["1178.5", "0.9"]], [["323.15"], ["0.5466"], ["101"], ["1178.9", "0.9"]], [["323.15"], ["0.5955"], ["101"], ["1179.7", "0.9"]], [["323.15"], ["0.6786"], ["101"], ["1181", "1"]], [["323.15"], ["0.7863"], ["101"], ["1182.2", "0.9"]], [["323.15"], ["0.9028"], ["101"], ["1183.1", "0.8"]], [["323.15"], ["1"], ["101"], ["1183.7", "0.8"]]], "expmeth": "Vibrating tube method"}