{"components": [{"name": "1,4-dioxane", "formula": "C<SUB>4</SUB>H<SUB>8</SUB>O<SUB>2</SUB>", "mw": "88.11", "idout": "AAQxnz", "sample": [["Source:", "commercial source"], ["Purification:", "stated by supplier"], ["Purity:", "99 mass %"], ["Purity analysis:", "molecular sieve treatment"]]}, {"formula": "C<SUB>6</SUB>H<SUB>11</SUB>BF<SUB>4</SUB>N<SUB>2</SUB>", "name": "1-ethyl-3-methylimidazolium tetrafluoroborate", "idout": "AAmDom", "mw": "197.97", "sample": [["Source:", "commercial source"], ["Purification:", "stated by supplier"], ["Purity:", "98 mass %"], ["Purity analysis:", "none used"]]}], "title": "Volumetric properties: Specific density", "dhead": [["Temperature, K", null], ["Mole fraction of 1-ethyl-3-methylimidazolium tetrafluoroborate", "Liquid"], ["Pressure, kPa", null], ["Specific density, kg/m<SUP>3</SUP>", "Liquid"]], "solvent": null, "data": [[["293.15"], ["0"], ["101"], ["1033.57", "0.26"]], [["293.15"], ["0.3292"], ["101"], ["1171.62", "0.6"]], [["293.15"], ["0.4547"], ["101"], ["1203.47", "0.73"]], [["293.15"], ["0.4923"], ["101"], ["1211.84", "0.77"]], [["293.15"], ["0.6409"], ["101"], ["1240.74", "0.96"]], [["293.15"], ["0.6838"], ["101"], ["1246.9", "1"]], [["293.15"], ["0.7851"], ["101"], ["1263.5", "1.2"]], [["293.15"], ["0.8336"], ["101"], ["1270.2", "1.2"]], [["293.15"], ["1"], ["101"], ["1290.6", "1.5"]], [["298.15"], ["0"], ["101"], ["1027.92", "0.25"]], [["298.15"], ["0.3292"], ["101"], ["1167.26", "0.6"]], [["298.15"], ["0.4547"], ["101"], ["1199.31", "0.72"]], [["298.15"], ["0.4923"], ["101"], ["1207.73", "0.76"]], [["298.15"], ["0.6409"], ["101"], ["1236.77", "0.95"]], [["298.15"], ["0.6838"], ["101"], ["1242.9", "1"]], [["298.15"], ["0.7851"], ["101"], ["1259.6", "1.1"]], [["298.15"], ["0.8336"], ["101"], ["1266.3", "1.2"]], [["298.15"], ["1"], ["101"], ["1286.8", "1.5"]], [["303.15"], ["0"], ["101"], ["1022.27", "0.25"]], [["303.15"], ["0.3292"], ["101"], ["1163", "0.59"]], [["303.15"], ["0.4547"], ["101"], ["1195.16", "0.72"]], [["303.15"], ["0.4923"], ["101"], ["1203.63", "0.76"]], [["303.15"], ["0.6409"], ["101"], ["1232.79", "0.94"]], [["303.15"], ["0.6838"], ["101"], ["1238.9", "1"]], [["303.15"], ["0.7851"], ["101"], ["1255.7", "1.1"]], [["303.15"], ["0.8336"], ["101"], ["1262.5", "1.2"]], [["303.15"], ["1"], ["101"], ["1283", "1.5"]], [["313.15"], ["0"], ["101"], ["1010.91", "0.24"]], [["313.15"], ["0.3292"], ["101"], ["1154.24", "0.58"]], [["313.15"], ["0.4547"], ["101"], ["1186.92", "0.71"]], [["313.15"], ["0.4923"], ["101"], ["1195.48", "0.75"]], [["313.15"], ["0.6409"], ["101"], ["1224.92", "0.93"]], [["313.15"], ["0.6838"], ["101"], ["1231.17", "0.98"]], [["313.15"], ["0.7851"], ["101"], ["1248", "1.1"]], [["313.15"], ["0.8336"], ["101"], ["1254.8", "1.2"]], [["313.15"], ["1"], ["101"], ["1275.5", "1.4"]], [["323.15"], ["0"], ["101"], ["999.49", "0.23"]], [["323.15"], ["0.3292"], ["101"], ["1145.14", "0.57"]], [["323.15"], ["0.4547"], ["101"], ["1178.43", "0.69"]], [["323.15"], ["0.4923"], ["101"], ["1187.38", "0.74"]], [["323.15"], ["0.6409"], ["101"], ["1217.1", "0.92"]], [["323.15"], ["0.6838"], ["101"], ["1223.4", "0.97"]], [["323.15"], ["0.7851"], ["101"], ["1240.4", "1.1"]], [["323.15"], ["0.8336"], ["101"], ["1247.2", "1.2"]], [["323.15"], ["1"], ["101"], ["1268", "1.4"]], [["333.15"], ["0"], ["101"], ["987.97", "0.23"]], [["333.15"], ["0.3292"], ["101"], ["1136.98", "0.56"]], [["333.15"], ["0.4547"], ["101"], ["1170.56", "0.68"]], [["333.15"], ["0.4923"], ["101"], ["1179.33", "0.72"]], [["333.15"], ["0.6409"], ["101"], ["1209.33", "0.9"]], [["333.15"], ["0.6838"], ["101"], ["1215.68", "0.96"]], [["333.15"], ["0.7851"], ["101"], ["1232.8", "1.1"]], [["333.15"], ["0.8336"], ["101"], ["1239.6", "1.2"]], [["333.15"], ["1"], ["101"], ["1260.5", "1.4"]], [["343.15"], ["0"], ["101"], ["976.37", "0.23"]], [["343.15"], ["0.3292"], ["101"], ["1128.37", "0.56"]], [["343.15"], ["0.4547"], ["101"], ["1162.44", "0.67"]], [["343.15"], ["0.4923"], ["101"], ["1171.31", "0.71"]], [["343.15"], ["0.6409"], ["101"], ["1201.62", "0.89"]], [["343.15"], ["0.6838"], ["101"], ["1208.02", "0.94"]], [["343.15"], ["0.7851"], ["101"], ["1225.2", "1.1"]], [["343.15"], ["0.8336"], ["101"], ["1232.2", "1.1"]], [["343.15"], ["1"], ["101"], ["1253.2", "1.4"]], [["353.15"], ["0"], ["101"], ["964.63", "0.23"]], [["353.15"], ["0.3292"], ["101"], ["1120.41", "0.55"]], [["353.15"], ["0.4547"], ["101"], ["1154.35", "0.66"]], [["353.15"], ["0.4923"], ["101"], ["1163.32", "0.7"]], [["353.15"], ["0.6409"], ["101"], ["1193.95", "0.88"]], [["353.15"], ["0.6838"], ["101"], ["1200.41", "0.93"]], [["353.15"], ["0.7851"], ["101"], ["1217.8", "1.1"]], [["353.15"], ["0.8336"], ["101"], ["1225.4", "1.1"]], [["353.15"], ["1"], ["101"], ["1245.9", "1.4"]]], "footer": "", "expmeth": "Vibrating tube method", "ref": {"full": "Ciocirlan, O.; Croitoru, O.; Iulian, O. (2014) J. Chem. Eng. Data 59(4), 1165-1174.", "title": "Density and Refractive Index of Binary Mixtures of Two 1-Alkyl-3-methylimidazolium Ionic Liquids with 1,4-Dioxane and Ethylene Glycol"}, "constr": [], "phases": ["Liquid"]}