{"constr": [], "ref": {"full": "Nisa, L. d. P.; Mugang, M.; Bermejo, M. D.; Puras, J. J. S.; Prez, E. (2019) J. Chem. Eng. Data 64(7), 2923-2928.", "title": "Density and Melting Points for the Binary Mixtures Dimethyl Sulfoxide (DMSO) + 1-Ethyl-3-methylimidazolium Acetate and DMSO + Choline Acetate"}, "phases": ["Liquid"], "title": "Volumetric properties: Specific density", "components": [{"sample": [["Source:", "commercial source"], ["Initial purification:", "stated by supplier"], ["Initial purity:", "98 mass %"], ["Final purification:", "Karl Fischer titration"], ["Final purity:", "0.039 water mass %(dried by vacuum heating)"]], "idout": "AAPByN", "mw": "78.13", "name": "dimethyl sulfoxide", "formula": "C<SUB>2</SUB>H<SUB>6</SUB>OS"}, {"name": "1-ethyl-3-methylimidazolium acetate", "formula": "C<SUB>8</SUB>H<SUB>14</SUB>N<SUB>2</SUB>O<SUB>2</SUB>", "mw": "170.21", "idout": "AAgmaR", "sample": [["Source:", "commercial source"], ["Initial purification:", "stated by supplier"], ["Initial purity:", "99.6 mass %"], ["Final purification:", "Karl Fischer titration"], ["Final purity:", "0.193 water mass %(dried by vacuum heating)"]]}], "dhead": [["Temperature, K", null], ["Mole fraction of dimethyl sulfoxide", "Liquid"], ["Pressure, kPa", null], ["Specific density, kg/m<SUP>3</SUP>", "Liquid"]], "footer": "", "data": [[["293.15"], ["0"], ["100"], ["1101.7", "0.5"]], [["293.15"], ["0.053"], ["100"], ["1102.4", "0.5"]], [["293.15"], ["0.103"], ["100"], ["1103", "0.5"]], [["293.15"], ["0.196"], ["100"], ["1103.8", "0.5"]], [["293.15"], ["0.301"], ["100"], ["1104.9", "0.5"]], [["293.15"], ["0.401"], ["100"], ["1105.8", "0.5"]], [["293.15"], ["0.501"], ["100"], ["1106.6", "0.5"]], [["293.15"], ["0.6"], ["100"], ["1107.4", "0.5"]], [["293.15"], ["0.686"], ["100"], ["1107.6", "0.5"]], [["293.15"], ["0.802"], ["100"], ["1107.2", "0.5"]], [["293.15"], ["0.899"], ["100"], ["1105.4", "0.5"]], [["293.15"], ["1"], ["100"], ["1100.2", "0.5"]], [["303.15"], ["0"], ["100"], ["1095.6", "0.5"]], [["303.15"], ["0.053"], ["100"], ["1096.3", "0.5"]], [["303.15"], ["0.103"], ["100"], ["1096.9", "0.5"]], [["303.15"], ["0.196"], ["100"], ["1097.5", "0.5"]], [["303.15"], ["0.301"], ["100"], ["1098.4", "0.5"]], [["303.15"], ["0.401"], ["100"], ["1099", "0.5"]], [["303.15"], ["0.501"], ["100"], ["1099.5", "0.5"]], [["303.15"], ["0.6"], ["100"], ["1099.9", "0.5"]], [["303.15"], ["0.686"], ["100"], ["1099.9", "0.5"]], [["303.15"], ["0.802"], ["100"], ["1098.8", "0.5"]], [["303.15"], ["0.899"], ["100"], ["1096.3", "0.5"]], [["303.15"], ["1"], ["100"], ["1090.2", "0.5"]], [["313.15"], ["0"], ["100"], ["1089.6", "0.5"]], [["313.15"], ["0.053"], ["100"], ["1090.3", "0.5"]], [["313.15"], ["0.103"], ["100"], ["1090.8", "0.5"]], [["313.15"], ["0.196"], ["100"], ["1091.2", "0.5"]], [["313.15"], ["0.301"], ["100"], ["1091.8", "0.5"]], [["313.15"], ["0.401"], ["100"], ["1092.2", "0.5"]], [["313.15"], ["0.501"], ["100"], ["1092.4", "0.5"]], [["313.15"], ["0.6"], ["100"], ["1092.5", "0.5"]], [["313.15"], ["0.686"], ["100"], ["1092", "0.5"]], [["313.15"], ["0.802"], ["100"], ["1090.4", "0.5"]], [["313.15"], ["0.899"], ["100"], ["1087.3", "0.5"]], [["313.15"], ["1"], ["100"], ["1080.4", "0.5"]], [["323.15"], ["0"], ["100"], ["1083.7", "0.5"]], [["323.15"], ["0.053"], ["100"], ["1084.2", "0.5"]], [["323.15"], ["0.103"], ["100"], ["1084.5", "0.5"]], [["323.15"], ["0.196"], ["100"], ["1084.8", "0.5"]], [["323.15"], ["0.301"], ["100"], ["1085.2", "0.5"]], [["323.15"], ["0.401"], ["100"], ["1085.3", "0.5"]], [["323.15"], ["0.501"], ["100"], ["1085.4", "0.5"]], [["323.15"], ["0.6"], ["100"], ["1085.1", "0.5"]], [["323.15"], ["0.686"], ["100"], ["1084.3", "0.5"]], [["323.15"], ["0.802"], ["100"], ["1082", "0.5"]], [["323.15"], ["0.899"], ["100"], ["1078.3", "0.5"]], [["323.15"], ["1"], ["100"], ["1070.2", "0.5"]], [["333.15"], ["0"], ["100"], ["1077.7", "0.5"]], [["333.15"], ["0.053"], ["100"], ["1078.1", "0.5"]], [["333.15"], ["0.103"], ["100"], ["1078.3", "0.5"]], [["333.15"], ["0.196"], ["100"], ["1078.4", "0.5"]], [["333.15"], ["0.301"], ["100"], ["1078.7", "0.5"]], [["333.15"], ["0.401"], ["100"], ["1078.7", "0.5"]], [["333.15"], ["0.501"], ["100"], ["1078.3", "0.5"]], [["333.15"], ["0.6"], ["100"], ["1077.8", "0.5"]], [["333.15"], ["0.686"], ["100"], ["1076.6", "0.5"]], [["333.15"], ["0.802"], ["100"], ["1073.7", "0.5"]], [["333.15"], ["0.899"], ["100"], ["1069.3", "0.5"]], [["333.15"], ["1"], ["100"], ["1060.3", "0.5"]], [["343.15"], ["0"], ["100"], ["1071.8", "0.5"]], [["343.15"], ["0.053"], ["100"], ["1072", "0.5"]], [["343.15"], ["0.103"], ["100"], ["1072.2", "0.5"]], [["343.15"], ["0.196"], ["100"], ["1072.2", "0.5"]], [["343.15"], ["0.301"], ["100"], ["1072.1", "0.5"]], [["343.15"], ["0.401"], ["100"], ["1071.8", "0.5"]], [["343.15"], ["0.501"], ["100"], ["1071.3", "0.5"]], [["343.15"], ["0.6"], ["100"], ["1070.4", "0.5"]], [["343.15"], ["0.686"], ["100"], ["1068.9", "0.5"]], [["343.15"], ["0.802"], ["100"], ["1065.4", "0.5"]], [["343.15"], ["0.899"], ["100"], ["1060.3", "0.5"]], [["343.15"], ["1"], ["100"], ["1050.2", "0.5"]], [["353.15"], ["0"], ["100"], ["1065.9", "0.5"]], [["353.15"], ["0.053"], ["100"], ["1066.1", "0.5"]], [["353.15"], ["0.103"], ["100"], ["1066.1", "0.5"]], [["353.15"], ["0.196"], ["100"], ["1065.9", "0.5"]], [["353.15"], ["0.301"], ["100"], ["1065.6", "0.5"]], [["353.15"], ["0.401"], ["100"], ["1065.2", "0.5"]], [["353.15"], ["0.501"], ["100"], ["1064.4", "0.5"]], [["353.15"], ["0.6"], ["100"], ["1063.1", "0.5"]], [["353.15"], ["0.686"], ["100"], ["1061.2", "0.5"]], [["353.15"], ["0.802"], ["100"], ["1057.1", "0.5"]], [["353.15"], ["0.899"], ["100"], ["1051.3", "0.5"]], [["353.15"], ["1"], ["100"], ["1040.2", "0.5"]], [["363.15"], ["0"], ["100"], ["1060", "0.5"]], [["363.15"], ["0.053"], ["100"], ["1060.1", "0.5"]], [["363.15"], ["0.103"], ["100"], ["1060", "0.5"]], [["363.15"], ["0.196"], ["100"], ["1059.8", "0.5"]], [["363.15"], ["0.301"], ["100"], ["1059.3", "0.5"]], [["363.15"], ["0.401"], ["100"], ["1058.4", "0.5"]], [["363.15"], ["0.501"], ["100"], ["1057.5", "0.5"]], [["363.15"], ["0.6"], ["100"], ["1055.8", "0.5"]], [["363.15"], ["0.686"], ["100"], ["1053.6", "0.5"]], [["363.15"], ["0.802"], ["100"], ["1048.8", "0.5"]], [["363.15"], ["0.899"], ["100"], ["1042.3", "0.5"]], [["363.15"], ["1"], ["100"], ["1029.9", "0.5"]], [["373.15"], ["0"], ["100"], ["1054.2", "0.5"]], [["373.15"], ["0.053"], ["100"], ["1054.1", "0.5"]], [["373.15"], ["0.103"], ["100"], ["1054", "0.5"]], [["373.15"], ["0.196"], ["100"], ["1053.6", "0.5"]], [["373.15"], ["0.301"], ["100"], ["1052.9", "0.5"]], [["373.15"], ["0.401"], ["100"], ["1051.8", "0.5"]], [["373.15"], ["0.501"], ["100"], ["1050.6", "0.5"]], [["373.15"], ["0.6"], ["100"], ["1048.5", "0.5"]], [["373.15"], ["0.686"], ["100"], ["1046", "0.5"]], [["373.15"], ["0.802"], ["100"], ["1040.4", "0.5"]], [["373.15"], ["0.899"], ["100"], ["1033.2", "0.5"]], [["373.15"], ["1"], ["100"], ["1019.8", "0.5"]]], "solvent": null, "expmeth": "Vibrating tube method"}