{"expmeth": "Vibrating tube method", "data": [[["293.15"], ["100"], ["1101.7", "0.5"]], [["303.15"], ["100"], ["1095.6", "0.5"]], [["313.15"], ["100"], ["1089.6", "0.5"]], [["323.15"], ["100"], ["1083.7", "0.5"]], [["333.15"], ["100"], ["1077.7", "0.5"]], [["343.15"], ["100"], ["1071.8", "0.5"]], [["353.15"], ["100"], ["1065.9", "0.5"]], [["363.15"], ["100"], ["1060", "0.5"]], [["373.15"], ["100"], ["1054.2", "0.5"]]], "solvent": null, "footer": "", "dhead": [["Temperature, K", null], ["Pressure, kPa", null], ["Specific density, kg/m<SUP>3</SUP>", "Liquid"]], "components": [{"sample": [["Source:", "commercial source"], ["Initial purification:", "stated by supplier"], ["Initial purity:", "99.6 mass %"], ["Final purification:", "Karl Fischer titration"], ["Final purity:", "0.193 water mass %(dried by vacuum heating)"]], "formula": "C<SUB>8</SUB>H<SUB>14</SUB>N<SUB>2</SUB>O<SUB>2</SUB>", "name": "1-ethyl-3-methylimidazolium acetate", "mw": "170.21", "idout": "AAgmaR"}], "title": "Volumetric properties: Specific density", "phases": ["Liquid"], "constr": [], "ref": {"full": "Nisa, L. d. P.; Mugang, M.; Bermejo, M. D.; Puras, J. J. S.; Prez, E. (2019) J. Chem. Eng. Data 64(7), 2923-2928.", "title": "Density and Melting Points for the Binary Mixtures Dimethyl Sulfoxide (DMSO) + 1-Ethyl-3-methylimidazolium Acetate and DMSO + Choline Acetate"}}