{"title": "Volumetric properties: Specific density", "components": [{"sample": [["Source:", "synthesized by others"], ["Purification:", "fraction melting in an adiabatic calorimeter"], ["Purity:", "98.6 mol %"]], "idout": "ABnWNT", "mw": "475.47", "name": "1-methyl-3-octylimidazolium bis(trifluoromethylsulfonyl)imide", "formula": "C<SUB>14</SUB>H<SUB>23</SUB>F<SUB>6</SUB>N<SUB>3</SUB>O<SUB>4</SUB>S<SUB>2</SUB>"}], "dhead": [["Temperature, K", null], ["Pressure, kPa", null], ["Specific density, kg/m<SUP>3</SUP>", "Liquid"]], "footer": "", "solvent": null, "data": [[["298.15"], ["101.325"], ["1321", "1"]], [["308.15"], ["101.325"], ["1312", "1"]]], "expmeth": "Pycnometric method", "ref": {"title": "Experimental Vapor Pressures of 1-Alkyl-3-methylimidazolium Bis(trifluoromethylsulfonyl)imides and a Correlation Scheme for Estimation of Vaporization Enthalpies of Ionic Liquids", "full": "Zaitsau, D. H.; Kabo, G. J.; Strechan, A. A.; Paulechka, Y. U.; Tschersich, A.; Verevkin, S. P.; Heintz, A. (2006) J. Phys. Chem. A 110(22), 7303-7306."}, "constr": [], "phases": ["Liquid"]}