{"ref": {"title": "Density and refractive index measurements of 1-ethyl-3-methylimidazolium-based ionic liquids", "full": "Soriano, A. N.; Doma Jr., B. T.; Li, M.-H. (2010) J. Taiwan Inst. Chem. Eng. 41, 115-121."}, "constr": [], "phases": ["Liquid"], "components": [{"formula": "C<SUB>7</SUB>H<SUB>11</SUB>F<SUB>3</SUB>N<SUB>2</SUB>O<SUB>3</SUB>S", "name": "1-ethyl-3-methylimidazolium trifluoromethanesulfonate", "idout": "AAyCVz", "mw": "260.23", "sample": [["Source:", "commercial source"], ["Initial purification:", "stated by supplier"], ["Initial purity:", "98 mass %"], ["Final purification:", "not known"], ["Final purity:", "0.7 water mass %(dried in a desiccator)"]]}], "title": "Volumetric properties: Specific density", "dhead": [["Temperature, K", null], ["Pressure, kPa", null], ["Specific density, kg/m<SUP>3</SUP>", "Liquid"]], "data": [[["293.2"], ["101.325"], ["1388.8", "1.8"]], [["298.2"], ["101.325"], ["1381.3", "1.8"]], [["299.2"], ["101.325"], ["1380.5", "1.8"]], [["300.2"], ["101.325"], ["1379.7", "1.8"]], [["301.2"], ["101.325"], ["1378.9", "1.8"]], [["302.2"], ["101.325"], ["1378.1", "1.8"]], [["303.2"], ["101.325"], ["1377.3", "1.8"]], [["304.2"], ["101.325"], ["1376.5", "1.8"]], [["305.2"], ["101.325"], ["1375.7", "1.8"]], [["306.2"], ["101.325"], ["1374.9", "1.8"]], [["307.2"], ["101.325"], ["1374.1", "1.7"]], [["308.2"], ["101.325"], ["1373.3", "1.7"]], [["313.2"], ["101.325"], ["1369.3", "1.7"]], [["318.2"], ["101.325"], ["1365.3", "1.7"]], [["323.2"], ["101.325"], ["1361.3", "1.7"]], [["333.2"], ["101.325"], ["1353.2", "1.7"]], [["343.2"], ["101.325"], ["1345.2", "1.7"]], [["353.2"], ["101.325"], ["1337.2", "1.7"]]], "solvent": null, "footer": "", "expmeth": "Vibrating tube method"}