{"solvent": null, "data": [[["293.15"], ["101"], ["1204.44", "0.4"]], [["298.15"], ["101"], ["1200.89", "0.39"]], [["303.15"], ["101"], ["1197.34", "0.39"]], [["313.15"], ["101"], ["1190.27", "0.39"]], [["323.15"], ["101"], ["1183.24", "0.38"]], [["333.15"], ["101"], ["1176.25", "0.37"]], [["343.15"], ["101"], ["1169.32", "0.37"]], [["353.15"], ["101"], ["1162.44", "0.36"]]], "footer": "", "expmeth": "Vibrating tube method", "components": [{"sample": [["Source:", "commercial source"], ["Purification:", "stated by supplier"], ["Purity:", "99 mass %"], ["Purity analysis:", "none used"]], "mw": "226.03", "idout": "AArYBF", "name": "1-butyl-3-methylimidazolium tetrafluoroborate", "formula": "C<SUB>8</SUB>H<SUB>15</SUB>BF<SUB>4</SUB>N<SUB>2</SUB>"}], "title": "Volumetric properties: Specific density", "dhead": [["Temperature, K", null], ["Pressure, kPa", null], ["Specific density, kg/m<SUP>3</SUP>", "Liquid"]], "phases": ["Liquid"], "ref": {"title": "Density and Refractive Index of Binary Mixtures of Two 1-Alkyl-3-methylimidazolium Ionic Liquids with 1,4-Dioxane and Ethylene Glycol", "full": "Ciocirlan, O.; Croitoru, O.; Iulian, O. (2014) J. Chem. Eng. Data 59(4), 1165-1174."}, "constr": []}