setid,Solvent: Volume ratio of triethylammonium acetate to other component of binary solvent,"Pressure, kPa","Temperature, K","Specific density, kg/m<SUP>3</SUP>",reference,propertiy,phases,compound id 1,smile 1,compound name 1,compound id 2,smile 2,compound name 2,compound id 3,smile 3,compound name 3
SBGoN,0.3,101,298.15,1014.74,Vasantha et al. (2012),Density,Liquid,Crystal of pure component 1,,3,AAZfHj,O=C(O)CNCC(=O)O,N-(carboxymethyl)glycine,AAfApq,CC(=O)[O-].CC[NH+](CC)CC,triethylammonium acetate
SBGoN,0.5,101,298.15,1029.64,Vasantha et al. (2012),Density,Liquid,Crystal of pure component 1,,3,AAZfHj,O=C(O)CNCC(=O)O,N-(carboxymethyl)glycine,AAfApq,CC(=O)[O-].CC[NH+](CC)CC,triethylammonium acetate
SBGoN,0.7,101,298.15,1112.1,Vasantha et al. (2012),Density,Liquid,Crystal of pure component 1,,3,AAZfHj,O=C(O)CNCC(=O)O,N-(carboxymethyl)glycine,AAfApq,CC(=O)[O-].CC[NH+](CC)CC,triethylammonium acetate