setid,"Temperature, K",Mole fraction of 1-ethyl-3-methylimidazolium ethyl sulfate,"Pressure, kPa",Solvent: Mole ratio of acetic acid to other component of binary solvent,"Specific density, kg/m<SUP>3</SUP>",reference,propertiy,phases,compound id 1,smile 1,compound name 1,compound id 2,smile 2,compound name 2,compound id 3,smile 3,compound name 3
qplrS,293.15,0,100,2,1096.4,Christabel et al. (2020),Density,Liquid,AAasxG,C[N+](C)(C)CCO.[Cl-],choline chloride,AALcAl,CC(=O)O,acetic acid,AAtWDT,CCOS(=O)(=O)[O-].CC[n+]1ccn(C)c1,1-ethyl-3-methylimidazolium ethyl sulfate
qplrS,293.15,0.1,100,2,1118.3,Christabel et al. (2020),Density,Liquid,AAasxG,C[N+](C)(C)CCO.[Cl-],choline chloride,AALcAl,CC(=O)O,acetic acid,AAtWDT,CCOS(=O)(=O)[O-].CC[n+]1ccn(C)c1,1-ethyl-3-methylimidazolium ethyl sulfate
qplrS,293.15,0.2,100,2,1129.9,Christabel et al. (2020),Density,Liquid,AAasxG,C[N+](C)(C)CCO.[Cl-],choline chloride,AALcAl,CC(=O)O,acetic acid,AAtWDT,CCOS(=O)(=O)[O-].CC[n+]1ccn(C)c1,1-ethyl-3-methylimidazolium ethyl sulfate
qplrS,293.15,0.3,100,2,1140.9,Christabel et al. (2020),Density,Liquid,AAasxG,C[N+](C)(C)CCO.[Cl-],choline chloride,AALcAl,CC(=O)O,acetic acid,AAtWDT,CCOS(=O)(=O)[O-].CC[n+]1ccn(C)c1,1-ethyl-3-methylimidazolium ethyl sulfate
qplrS,293.15,0.4,100,2,1157.5,Christabel et al. (2020),Density,Liquid,AAasxG,C[N+](C)(C)CCO.[Cl-],choline chloride,AALcAl,CC(=O)O,acetic acid,AAtWDT,CCOS(=O)(=O)[O-].CC[n+]1ccn(C)c1,1-ethyl-3-methylimidazolium ethyl sulfate
qplrS,293.15,0.5,100,2,1169.6,Christabel et al. (2020),Density,Liquid,AAasxG,C[N+](C)(C)CCO.[Cl-],choline chloride,AALcAl,CC(=O)O,acetic acid,AAtWDT,CCOS(=O)(=O)[O-].CC[n+]1ccn(C)c1,1-ethyl-3-methylimidazolium ethyl sulfate
qplrS,293.15,0.6,100,2,1181.1,Christabel et al. (2020),Density,Liquid,AAasxG,C[N+](C)(C)CCO.[Cl-],choline chloride,AALcAl,CC(=O)O,acetic acid,AAtWDT,CCOS(=O)(=O)[O-].CC[n+]1ccn(C)c1,1-ethyl-3-methylimidazolium ethyl sulfate
qplrS,293.15,0.7,100,2,1196.4,Christabel et al. (2020),Density,Liquid,AAasxG,C[N+](C)(C)CCO.[Cl-],choline chloride,AALcAl,CC(=O)O,acetic acid,AAtWDT,CCOS(=O)(=O)[O-].CC[n+]1ccn(C)c1,1-ethyl-3-methylimidazolium ethyl sulfate
qplrS,293.15,0.8,100,2,1208.3,Christabel et al. (2020),Density,Liquid,AAasxG,C[N+](C)(C)CCO.[Cl-],choline chloride,AALcAl,CC(=O)O,acetic acid,AAtWDT,CCOS(=O)(=O)[O-].CC[n+]1ccn(C)c1,1-ethyl-3-methylimidazolium ethyl sulfate
qplrS,293.15,0.9,100,2,1223.4,Christabel et al. (2020),Density,Liquid,AAasxG,C[N+](C)(C)CCO.[Cl-],choline chloride,AALcAl,CC(=O)O,acetic acid,AAtWDT,CCOS(=O)(=O)[O-].CC[n+]1ccn(C)c1,1-ethyl-3-methylimidazolium ethyl sulfate
qplrS,293.15,1,100,2,1240.2,Christabel et al. (2020),Density,Liquid,AAasxG,C[N+](C)(C)CCO.[Cl-],choline chloride,AALcAl,CC(=O)O,acetic acid,AAtWDT,CCOS(=O)(=O)[O-].CC[n+]1ccn(C)c1,1-ethyl-3-methylimidazolium ethyl sulfate
qplrS,298.15,0,100,2,1092.5,Christabel et al. (2020),Density,Liquid,AAasxG,C[N+](C)(C)CCO.[Cl-],choline chloride,AALcAl,CC(=O)O,acetic acid,AAtWDT,CCOS(=O)(=O)[O-].CC[n+]1ccn(C)c1,1-ethyl-3-methylimidazolium ethyl sulfate
qplrS,298.15,0.1,100,2,1114.4,Christabel et al. (2020),Density,Liquid,AAasxG,C[N+](C)(C)CCO.[Cl-],choline chloride,AALcAl,CC(=O)O,acetic acid,AAtWDT,CCOS(=O)(=O)[O-].CC[n+]1ccn(C)c1,1-ethyl-3-methylimidazolium ethyl sulfate
qplrS,298.15,0.2,100,2,1126.1,Christabel et al. (2020),Density,Liquid,AAasxG,C[N+](C)(C)CCO.[Cl-],choline chloride,AALcAl,CC(=O)O,acetic acid,AAtWDT,CCOS(=O)(=O)[O-].CC[n+]1ccn(C)c1,1-ethyl-3-methylimidazolium ethyl sulfate
qplrS,298.15,0.3,100,2,1137.2,Christabel et al. (2020),Density,Liquid,AAasxG,C[N+](C)(C)CCO.[Cl-],choline chloride,AALcAl,CC(=O)O,acetic acid,AAtWDT,CCOS(=O)(=O)[O-].CC[n+]1ccn(C)c1,1-ethyl-3-methylimidazolium ethyl sulfate
qplrS,298.15,0.4,100,2,1153.8,Christabel et al. (2020),Density,Liquid,AAasxG,C[N+](C)(C)CCO.[Cl-],choline chloride,AALcAl,CC(=O)O,acetic acid,AAtWDT,CCOS(=O)(=O)[O-].CC[n+]1ccn(C)c1,1-ethyl-3-methylimidazolium ethyl sulfate
qplrS,298.15,0.5,100,2,1165.9,Christabel et al. (2020),Density,Liquid,AAasxG,C[N+](C)(C)CCO.[Cl-],choline chloride,AALcAl,CC(=O)O,acetic acid,AAtWDT,CCOS(=O)(=O)[O-].CC[n+]1ccn(C)c1,1-ethyl-3-methylimidazolium ethyl sulfate
qplrS,298.15,0.6,100,2,1177.5,Christabel et al. (2020),Density,Liquid,AAasxG,C[N+](C)(C)CCO.[Cl-],choline chloride,AALcAl,CC(=O)O,acetic acid,AAtWDT,CCOS(=O)(=O)[O-].CC[n+]1ccn(C)c1,1-ethyl-3-methylimidazolium ethyl sulfate
qplrS,298.15,0.7,100,2,1192.9,Christabel et al. (2020),Density,Liquid,AAasxG,C[N+](C)(C)CCO.[Cl-],choline chloride,AALcAl,CC(=O)O,acetic acid,AAtWDT,CCOS(=O)(=O)[O-].CC[n+]1ccn(C)c1,1-ethyl-3-methylimidazolium ethyl sulfate
qplrS,298.15,0.8,100,2,1204.8,Christabel et al. (2020),Density,Liquid,AAasxG,C[N+](C)(C)CCO.[Cl-],choline chloride,AALcAl,CC(=O)O,acetic acid,AAtWDT,CCOS(=O)(=O)[O-].CC[n+]1ccn(C)c1,1-ethyl-3-methylimidazolium ethyl sulfate
qplrS,298.15,0.9,100,2,1219.9,Christabel et al. (2020),Density,Liquid,AAasxG,C[N+](C)(C)CCO.[Cl-],choline chloride,AALcAl,CC(=O)O,acetic acid,AAtWDT,CCOS(=O)(=O)[O-].CC[n+]1ccn(C)c1,1-ethyl-3-methylimidazolium ethyl sulfate
qplrS,298.15,1,100,2,1236.8,Christabel et al. (2020),Density,Liquid,AAasxG,C[N+](C)(C)CCO.[Cl-],choline chloride,AALcAl,CC(=O)O,acetic acid,AAtWDT,CCOS(=O)(=O)[O-].CC[n+]1ccn(C)c1,1-ethyl-3-methylimidazolium ethyl sulfate
qplrS,303.15,0,100,2,1088.5,Christabel et al. (2020),Density,Liquid,AAasxG,C[N+](C)(C)CCO.[Cl-],choline chloride,AALcAl,CC(=O)O,acetic acid,AAtWDT,CCOS(=O)(=O)[O-].CC[n+]1ccn(C)c1,1-ethyl-3-methylimidazolium ethyl sulfate
qplrS,303.15,0.1,100,2,1110.6,Christabel et al. (2020),Density,Liquid,AAasxG,C[N+](C)(C)CCO.[Cl-],choline chloride,AALcAl,CC(=O)O,acetic acid,AAtWDT,CCOS(=O)(=O)[O-].CC[n+]1ccn(C)c1,1-ethyl-3-methylimidazolium ethyl sulfate
qplrS,303.15,0.2,100,2,1122.3,Christabel et al. (2020),Density,Liquid,AAasxG,C[N+](C)(C)CCO.[Cl-],choline chloride,AALcAl,CC(=O)O,acetic acid,AAtWDT,CCOS(=O)(=O)[O-].CC[n+]1ccn(C)c1,1-ethyl-3-methylimidazolium ethyl sulfate
qplrS,303.15,0.3,100,2,1133.4,Christabel et al. (2020),Density,Liquid,AAasxG,C[N+](C)(C)CCO.[Cl-],choline chloride,AALcAl,CC(=O)O,acetic acid,AAtWDT,CCOS(=O)(=O)[O-].CC[n+]1ccn(C)c1,1-ethyl-3-methylimidazolium ethyl sulfate
qplrS,303.15,0.4,100,2,1150.1,Christabel et al. (2020),Density,Liquid,AAasxG,C[N+](C)(C)CCO.[Cl-],choline chloride,AALcAl,CC(=O)O,acetic acid,AAtWDT,CCOS(=O)(=O)[O-].CC[n+]1ccn(C)c1,1-ethyl-3-methylimidazolium ethyl sulfate
qplrS,303.15,0.5,100,2,1162.3,Christabel et al. (2020),Density,Liquid,AAasxG,C[N+](C)(C)CCO.[Cl-],choline chloride,AALcAl,CC(=O)O,acetic acid,AAtWDT,CCOS(=O)(=O)[O-].CC[n+]1ccn(C)c1,1-ethyl-3-methylimidazolium ethyl sulfate
qplrS,303.15,0.6,100,2,1173.9,Christabel et al. (2020),Density,Liquid,AAasxG,C[N+](C)(C)CCO.[Cl-],choline chloride,AALcAl,CC(=O)O,acetic acid,AAtWDT,CCOS(=O)(=O)[O-].CC[n+]1ccn(C)c1,1-ethyl-3-methylimidazolium ethyl sulfate
qplrS,303.15,0.7,100,2,1189.3,Christabel et al. (2020),Density,Liquid,AAasxG,C[N+](C)(C)CCO.[Cl-],choline chloride,AALcAl,CC(=O)O,acetic acid,AAtWDT,CCOS(=O)(=O)[O-].CC[n+]1ccn(C)c1,1-ethyl-3-methylimidazolium ethyl sulfate
qplrS,303.15,0.8,100,2,1201.3,Christabel et al. (2020),Density,Liquid,AAasxG,C[N+](C)(C)CCO.[Cl-],choline chloride,AALcAl,CC(=O)O,acetic acid,AAtWDT,CCOS(=O)(=O)[O-].CC[n+]1ccn(C)c1,1-ethyl-3-methylimidazolium ethyl sulfate
qplrS,303.15,0.9,100,2,1216.5,Christabel et al. (2020),Density,Liquid,AAasxG,C[N+](C)(C)CCO.[Cl-],choline chloride,AALcAl,CC(=O)O,acetic acid,AAtWDT,CCOS(=O)(=O)[O-].CC[n+]1ccn(C)c1,1-ethyl-3-methylimidazolium ethyl sulfate
qplrS,303.15,1,100,2,1233.4,Christabel et al. (2020),Density,Liquid,AAasxG,C[N+](C)(C)CCO.[Cl-],choline chloride,AALcAl,CC(=O)O,acetic acid,AAtWDT,CCOS(=O)(=O)[O-].CC[n+]1ccn(C)c1,1-ethyl-3-methylimidazolium ethyl sulfate
qplrS,308.15,0,100,2,1084.6,Christabel et al. (2020),Density,Liquid,AAasxG,C[N+](C)(C)CCO.[Cl-],choline chloride,AALcAl,CC(=O)O,acetic acid,AAtWDT,CCOS(=O)(=O)[O-].CC[n+]1ccn(C)c1,1-ethyl-3-methylimidazolium ethyl sulfate
qplrS,308.15,0.1,100,2,1106.8,Christabel et al. (2020),Density,Liquid,AAasxG,C[N+](C)(C)CCO.[Cl-],choline chloride,AALcAl,CC(=O)O,acetic acid,AAtWDT,CCOS(=O)(=O)[O-].CC[n+]1ccn(C)c1,1-ethyl-3-methylimidazolium ethyl sulfate
qplrS,308.15,0.2,100,2,1118.5,Christabel et al. (2020),Density,Liquid,AAasxG,C[N+](C)(C)CCO.[Cl-],choline chloride,AALcAl,CC(=O)O,acetic acid,AAtWDT,CCOS(=O)(=O)[O-].CC[n+]1ccn(C)c1,1-ethyl-3-methylimidazolium ethyl sulfate
qplrS,308.15,0.3,100,2,1129.7,Christabel et al. (2020),Density,Liquid,AAasxG,C[N+](C)(C)CCO.[Cl-],choline chloride,AALcAl,CC(=O)O,acetic acid,AAtWDT,CCOS(=O)(=O)[O-].CC[n+]1ccn(C)c1,1-ethyl-3-methylimidazolium ethyl sulfate
qplrS,308.15,0.4,100,2,1146.5,Christabel et al. (2020),Density,Liquid,AAasxG,C[N+](C)(C)CCO.[Cl-],choline chloride,AALcAl,CC(=O)O,acetic acid,AAtWDT,CCOS(=O)(=O)[O-].CC[n+]1ccn(C)c1,1-ethyl-3-methylimidazolium ethyl sulfate
qplrS,308.15,0.5,100,2,1158.7,Christabel et al. (2020),Density,Liquid,AAasxG,C[N+](C)(C)CCO.[Cl-],choline chloride,AALcAl,CC(=O)O,acetic acid,AAtWDT,CCOS(=O)(=O)[O-].CC[n+]1ccn(C)c1,1-ethyl-3-methylimidazolium ethyl sulfate
qplrS,308.15,0.6,100,2,1170.3,Christabel et al. (2020),Density,Liquid,AAasxG,C[N+](C)(C)CCO.[Cl-],choline chloride,AALcAl,CC(=O)O,acetic acid,AAtWDT,CCOS(=O)(=O)[O-].CC[n+]1ccn(C)c1,1-ethyl-3-methylimidazolium ethyl sulfate
qplrS,308.15,0.7,100,2,1185.8,Christabel et al. (2020),Density,Liquid,AAasxG,C[N+](C)(C)CCO.[Cl-],choline chloride,AALcAl,CC(=O)O,acetic acid,AAtWDT,CCOS(=O)(=O)[O-].CC[n+]1ccn(C)c1,1-ethyl-3-methylimidazolium ethyl sulfate
qplrS,308.15,0.8,100,2,1197.8,Christabel et al. (2020),Density,Liquid,AAasxG,C[N+](C)(C)CCO.[Cl-],choline chloride,AALcAl,CC(=O)O,acetic acid,AAtWDT,CCOS(=O)(=O)[O-].CC[n+]1ccn(C)c1,1-ethyl-3-methylimidazolium ethyl sulfate
qplrS,308.15,0.9,100,2,1213,Christabel et al. (2020),Density,Liquid,AAasxG,C[N+](C)(C)CCO.[Cl-],choline chloride,AALcAl,CC(=O)O,acetic acid,AAtWDT,CCOS(=O)(=O)[O-].CC[n+]1ccn(C)c1,1-ethyl-3-methylimidazolium ethyl sulfate
qplrS,308.15,1,100,2,1230,Christabel et al. (2020),Density,Liquid,AAasxG,C[N+](C)(C)CCO.[Cl-],choline chloride,AALcAl,CC(=O)O,acetic acid,AAtWDT,CCOS(=O)(=O)[O-].CC[n+]1ccn(C)c1,1-ethyl-3-methylimidazolium ethyl sulfate
qplrS,313.15,0,100,2,1080.7,Christabel et al. (2020),Density,Liquid,AAasxG,C[N+](C)(C)CCO.[Cl-],choline chloride,AALcAl,CC(=O)O,acetic acid,AAtWDT,CCOS(=O)(=O)[O-].CC[n+]1ccn(C)c1,1-ethyl-3-methylimidazolium ethyl sulfate
qplrS,313.15,0.1,100,2,1103,Christabel et al. (2020),Density,Liquid,AAasxG,C[N+](C)(C)CCO.[Cl-],choline chloride,AALcAl,CC(=O)O,acetic acid,AAtWDT,CCOS(=O)(=O)[O-].CC[n+]1ccn(C)c1,1-ethyl-3-methylimidazolium ethyl sulfate
qplrS,313.15,0.2,100,2,1114.8,Christabel et al. (2020),Density,Liquid,AAasxG,C[N+](C)(C)CCO.[Cl-],choline chloride,AALcAl,CC(=O)O,acetic acid,AAtWDT,CCOS(=O)(=O)[O-].CC[n+]1ccn(C)c1,1-ethyl-3-methylimidazolium ethyl sulfate
qplrS,313.15,0.3,100,2,1126,Christabel et al. (2020),Density,Liquid,AAasxG,C[N+](C)(C)CCO.[Cl-],choline chloride,AALcAl,CC(=O)O,acetic acid,AAtWDT,CCOS(=O)(=O)[O-].CC[n+]1ccn(C)c1,1-ethyl-3-methylimidazolium ethyl sulfate
qplrS,313.15,0.4,100,2,1142.8,Christabel et al. (2020),Density,Liquid,AAasxG,C[N+](C)(C)CCO.[Cl-],choline chloride,AALcAl,CC(=O)O,acetic acid,AAtWDT,CCOS(=O)(=O)[O-].CC[n+]1ccn(C)c1,1-ethyl-3-methylimidazolium ethyl sulfate
qplrS,313.15,0.5,100,2,1155,Christabel et al. (2020),Density,Liquid,AAasxG,C[N+](C)(C)CCO.[Cl-],choline chloride,AALcAl,CC(=O)O,acetic acid,AAtWDT,CCOS(=O)(=O)[O-].CC[n+]1ccn(C)c1,1-ethyl-3-methylimidazolium ethyl sulfate
qplrS,313.15,0.6,100,2,1166.7,Christabel et al. (2020),Density,Liquid,AAasxG,C[N+](C)(C)CCO.[Cl-],choline chloride,AALcAl,CC(=O)O,acetic acid,AAtWDT,CCOS(=O)(=O)[O-].CC[n+]1ccn(C)c1,1-ethyl-3-methylimidazolium ethyl sulfate
qplrS,313.15,0.7,100,2,1182.2,Christabel et al. (2020),Density,Liquid,AAasxG,C[N+](C)(C)CCO.[Cl-],choline chloride,AALcAl,CC(=O)O,acetic acid,AAtWDT,CCOS(=O)(=O)[O-].CC[n+]1ccn(C)c1,1-ethyl-3-methylimidazolium ethyl sulfate
qplrS,313.15,0.8,100,2,1194.3,Christabel et al. (2020),Density,Liquid,AAasxG,C[N+](C)(C)CCO.[Cl-],choline chloride,AALcAl,CC(=O)O,acetic acid,AAtWDT,CCOS(=O)(=O)[O-].CC[n+]1ccn(C)c1,1-ethyl-3-methylimidazolium ethyl sulfate
qplrS,313.15,0.9,100,2,1209.6,Christabel et al. (2020),Density,Liquid,AAasxG,C[N+](C)(C)CCO.[Cl-],choline chloride,AALcAl,CC(=O)O,acetic acid,AAtWDT,CCOS(=O)(=O)[O-].CC[n+]1ccn(C)c1,1-ethyl-3-methylimidazolium ethyl sulfate
qplrS,313.15,1,100,2,1226.6,Christabel et al. (2020),Density,Liquid,AAasxG,C[N+](C)(C)CCO.[Cl-],choline chloride,AALcAl,CC(=O)O,acetic acid,AAtWDT,CCOS(=O)(=O)[O-].CC[n+]1ccn(C)c1,1-ethyl-3-methylimidazolium ethyl sulfate
qplrS,318.15,0,100,2,1076.8,Christabel et al. (2020),Density,Liquid,AAasxG,C[N+](C)(C)CCO.[Cl-],choline chloride,AALcAl,CC(=O)O,acetic acid,AAtWDT,CCOS(=O)(=O)[O-].CC[n+]1ccn(C)c1,1-ethyl-3-methylimidazolium ethyl sulfate
qplrS,318.15,0.1,100,2,1099.1,Christabel et al. (2020),Density,Liquid,AAasxG,C[N+](C)(C)CCO.[Cl-],choline chloride,AALcAl,CC(=O)O,acetic acid,AAtWDT,CCOS(=O)(=O)[O-].CC[n+]1ccn(C)c1,1-ethyl-3-methylimidazolium ethyl sulfate
qplrS,318.15,0.2,100,2,1111,Christabel et al. (2020),Density,Liquid,AAasxG,C[N+](C)(C)CCO.[Cl-],choline chloride,AALcAl,CC(=O)O,acetic acid,AAtWDT,CCOS(=O)(=O)[O-].CC[n+]1ccn(C)c1,1-ethyl-3-methylimidazolium ethyl sulfate
qplrS,318.15,0.3,100,2,1122.3,Christabel et al. (2020),Density,Liquid,AAasxG,C[N+](C)(C)CCO.[Cl-],choline chloride,AALcAl,CC(=O)O,acetic acid,AAtWDT,CCOS(=O)(=O)[O-].CC[n+]1ccn(C)c1,1-ethyl-3-methylimidazolium ethyl sulfate
qplrS,318.15,0.4,100,2,1139.2,Christabel et al. (2020),Density,Liquid,AAasxG,C[N+](C)(C)CCO.[Cl-],choline chloride,AALcAl,CC(=O)O,acetic acid,AAtWDT,CCOS(=O)(=O)[O-].CC[n+]1ccn(C)c1,1-ethyl-3-methylimidazolium ethyl sulfate
qplrS,318.15,0.5,100,2,1151.4,Christabel et al. (2020),Density,Liquid,AAasxG,C[N+](C)(C)CCO.[Cl-],choline chloride,AALcAl,CC(=O)O,acetic acid,AAtWDT,CCOS(=O)(=O)[O-].CC[n+]1ccn(C)c1,1-ethyl-3-methylimidazolium ethyl sulfate
qplrS,318.15,0.6,100,2,1163.1,Christabel et al. (2020),Density,Liquid,AAasxG,C[N+](C)(C)CCO.[Cl-],choline chloride,AALcAl,CC(=O)O,acetic acid,AAtWDT,CCOS(=O)(=O)[O-].CC[n+]1ccn(C)c1,1-ethyl-3-methylimidazolium ethyl sulfate
qplrS,318.15,0.7,100,2,1178.7,Christabel et al. (2020),Density,Liquid,AAasxG,C[N+](C)(C)CCO.[Cl-],choline chloride,AALcAl,CC(=O)O,acetic acid,AAtWDT,CCOS(=O)(=O)[O-].CC[n+]1ccn(C)c1,1-ethyl-3-methylimidazolium ethyl sulfate
qplrS,318.15,0.8,100,2,1190.8,Christabel et al. (2020),Density,Liquid,AAasxG,C[N+](C)(C)CCO.[Cl-],choline chloride,AALcAl,CC(=O)O,acetic acid,AAtWDT,CCOS(=O)(=O)[O-].CC[n+]1ccn(C)c1,1-ethyl-3-methylimidazolium ethyl sulfate
qplrS,318.15,0.9,100,2,1206.1,Christabel et al. (2020),Density,Liquid,AAasxG,C[N+](C)(C)CCO.[Cl-],choline chloride,AALcAl,CC(=O)O,acetic acid,AAtWDT,CCOS(=O)(=O)[O-].CC[n+]1ccn(C)c1,1-ethyl-3-methylimidazolium ethyl sulfate
qplrS,318.15,1,100,2,1223.2,Christabel et al. (2020),Density,Liquid,AAasxG,C[N+](C)(C)CCO.[Cl-],choline chloride,AALcAl,CC(=O)O,acetic acid,AAtWDT,CCOS(=O)(=O)[O-].CC[n+]1ccn(C)c1,1-ethyl-3-methylimidazolium ethyl sulfate
qplrS,323.15,0,100,2,1072.9,Christabel et al. (2020),Density,Liquid,AAasxG,C[N+](C)(C)CCO.[Cl-],choline chloride,AALcAl,CC(=O)O,acetic acid,AAtWDT,CCOS(=O)(=O)[O-].CC[n+]1ccn(C)c1,1-ethyl-3-methylimidazolium ethyl sulfate
qplrS,323.15,0.1,100,2,1095.3,Christabel et al. (2020),Density,Liquid,AAasxG,C[N+](C)(C)CCO.[Cl-],choline chloride,AALcAl,CC(=O)O,acetic acid,AAtWDT,CCOS(=O)(=O)[O-].CC[n+]1ccn(C)c1,1-ethyl-3-methylimidazolium ethyl sulfate
qplrS,323.15,0.2,100,2,1107.3,Christabel et al. (2020),Density,Liquid,AAasxG,C[N+](C)(C)CCO.[Cl-],choline chloride,AALcAl,CC(=O)O,acetic acid,AAtWDT,CCOS(=O)(=O)[O-].CC[n+]1ccn(C)c1,1-ethyl-3-methylimidazolium ethyl sulfate
qplrS,323.15,0.3,100,2,1118.5,Christabel et al. (2020),Density,Liquid,AAasxG,C[N+](C)(C)CCO.[Cl-],choline chloride,AALcAl,CC(=O)O,acetic acid,AAtWDT,CCOS(=O)(=O)[O-].CC[n+]1ccn(C)c1,1-ethyl-3-methylimidazolium ethyl sulfate
qplrS,323.15,0.4,100,2,1135.5,Christabel et al. (2020),Density,Liquid,AAasxG,C[N+](C)(C)CCO.[Cl-],choline chloride,AALcAl,CC(=O)O,acetic acid,AAtWDT,CCOS(=O)(=O)[O-].CC[n+]1ccn(C)c1,1-ethyl-3-methylimidazolium ethyl sulfate
qplrS,323.15,0.5,100,2,1147.8,Christabel et al. (2020),Density,Liquid,AAasxG,C[N+](C)(C)CCO.[Cl-],choline chloride,AALcAl,CC(=O)O,acetic acid,AAtWDT,CCOS(=O)(=O)[O-].CC[n+]1ccn(C)c1,1-ethyl-3-methylimidazolium ethyl sulfate
qplrS,323.15,0.6,100,2,1159.6,Christabel et al. (2020),Density,Liquid,AAasxG,C[N+](C)(C)CCO.[Cl-],choline chloride,AALcAl,CC(=O)O,acetic acid,AAtWDT,CCOS(=O)(=O)[O-].CC[n+]1ccn(C)c1,1-ethyl-3-methylimidazolium ethyl sulfate
qplrS,323.15,0.7,100,2,1175.2,Christabel et al. (2020),Density,Liquid,AAasxG,C[N+](C)(C)CCO.[Cl-],choline chloride,AALcAl,CC(=O)O,acetic acid,AAtWDT,CCOS(=O)(=O)[O-].CC[n+]1ccn(C)c1,1-ethyl-3-methylimidazolium ethyl sulfate
qplrS,323.15,0.8,100,2,1187.3,Christabel et al. (2020),Density,Liquid,AAasxG,C[N+](C)(C)CCO.[Cl-],choline chloride,AALcAl,CC(=O)O,acetic acid,AAtWDT,CCOS(=O)(=O)[O-].CC[n+]1ccn(C)c1,1-ethyl-3-methylimidazolium ethyl sulfate
qplrS,323.15,0.9,100,2,1202.7,Christabel et al. (2020),Density,Liquid,AAasxG,C[N+](C)(C)CCO.[Cl-],choline chloride,AALcAl,CC(=O)O,acetic acid,AAtWDT,CCOS(=O)(=O)[O-].CC[n+]1ccn(C)c1,1-ethyl-3-methylimidazolium ethyl sulfate
qplrS,323.15,1,100,2,1219.9,Christabel et al. (2020),Density,Liquid,AAasxG,C[N+](C)(C)CCO.[Cl-],choline chloride,AALcAl,CC(=O)O,acetic acid,AAtWDT,CCOS(=O)(=O)[O-].CC[n+]1ccn(C)c1,1-ethyl-3-methylimidazolium ethyl sulfate
qplrS,328.15,0,100,2,1069,Christabel et al. (2020),Density,Liquid,AAasxG,C[N+](C)(C)CCO.[Cl-],choline chloride,AALcAl,CC(=O)O,acetic acid,AAtWDT,CCOS(=O)(=O)[O-].CC[n+]1ccn(C)c1,1-ethyl-3-methylimidazolium ethyl sulfate
qplrS,328.15,0.1,100,2,1091.5,Christabel et al. (2020),Density,Liquid,AAasxG,C[N+](C)(C)CCO.[Cl-],choline chloride,AALcAl,CC(=O)O,acetic acid,AAtWDT,CCOS(=O)(=O)[O-].CC[n+]1ccn(C)c1,1-ethyl-3-methylimidazolium ethyl sulfate
qplrS,328.15,0.2,100,2,1103.5,Christabel et al. (2020),Density,Liquid,AAasxG,C[N+](C)(C)CCO.[Cl-],choline chloride,AALcAl,CC(=O)O,acetic acid,AAtWDT,CCOS(=O)(=O)[O-].CC[n+]1ccn(C)c1,1-ethyl-3-methylimidazolium ethyl sulfate
qplrS,328.15,0.3,100,2,1114.8,Christabel et al. (2020),Density,Liquid,AAasxG,C[N+](C)(C)CCO.[Cl-],choline chloride,AALcAl,CC(=O)O,acetic acid,AAtWDT,CCOS(=O)(=O)[O-].CC[n+]1ccn(C)c1,1-ethyl-3-methylimidazolium ethyl sulfate
qplrS,328.15,0.4,100,2,1131.9,Christabel et al. (2020),Density,Liquid,AAasxG,C[N+](C)(C)CCO.[Cl-],choline chloride,AALcAl,CC(=O)O,acetic acid,AAtWDT,CCOS(=O)(=O)[O-].CC[n+]1ccn(C)c1,1-ethyl-3-methylimidazolium ethyl sulfate
qplrS,328.15,0.5,100,2,1144.2,Christabel et al. (2020),Density,Liquid,AAasxG,C[N+](C)(C)CCO.[Cl-],choline chloride,AALcAl,CC(=O)O,acetic acid,AAtWDT,CCOS(=O)(=O)[O-].CC[n+]1ccn(C)c1,1-ethyl-3-methylimidazolium ethyl sulfate
qplrS,328.15,0.6,100,2,1156,Christabel et al. (2020),Density,Liquid,AAasxG,C[N+](C)(C)CCO.[Cl-],choline chloride,AALcAl,CC(=O)O,acetic acid,AAtWDT,CCOS(=O)(=O)[O-].CC[n+]1ccn(C)c1,1-ethyl-3-methylimidazolium ethyl sulfate
qplrS,328.15,0.7,100,2,1171.7,Christabel et al. (2020),Density,Liquid,AAasxG,C[N+](C)(C)CCO.[Cl-],choline chloride,AALcAl,CC(=O)O,acetic acid,AAtWDT,CCOS(=O)(=O)[O-].CC[n+]1ccn(C)c1,1-ethyl-3-methylimidazolium ethyl sulfate
qplrS,328.15,0.8,100,2,1183.9,Christabel et al. (2020),Density,Liquid,AAasxG,C[N+](C)(C)CCO.[Cl-],choline chloride,AALcAl,CC(=O)O,acetic acid,AAtWDT,CCOS(=O)(=O)[O-].CC[n+]1ccn(C)c1,1-ethyl-3-methylimidazolium ethyl sulfate
qplrS,328.15,0.9,100,2,1199.3,Christabel et al. (2020),Density,Liquid,AAasxG,C[N+](C)(C)CCO.[Cl-],choline chloride,AALcAl,CC(=O)O,acetic acid,AAtWDT,CCOS(=O)(=O)[O-].CC[n+]1ccn(C)c1,1-ethyl-3-methylimidazolium ethyl sulfate