setid,"Temperature, K",Mole fraction of 1-ethyl-3-methylimidazolium hydrogen sulfate,"Pressure, kPa",Solvent: Mole ratio of acetic acid to other component of binary solvent,"Specific density, kg/m<SUP>3</SUP>",reference,propertiy,phases,compound id 1,smile 1,compound name 1,compound id 2,smile 2,compound name 2,compound id 3,smile 3,compound name 3
TfwkE,328.15,1,100,2,1347.7,Christabel et al. (2020),Density,Liquid,AAasxG,C[N+](C)(C)CCO.[Cl-],choline chloride,AALcAl,CC(=O)O,acetic acid,AAoChY,CC[n+]1ccn(C)c1.O=S(=O)([O-])O,1-ethyl-3-methylimidazolium hydrogen sulfate
TfwkE,333.15,0,100,2,1065.1,Christabel et al. (2020),Density,Liquid,AAasxG,C[N+](C)(C)CCO.[Cl-],choline chloride,AALcAl,CC(=O)O,acetic acid,AAoChY,CC[n+]1ccn(C)c1.O=S(=O)([O-])O,1-ethyl-3-methylimidazolium hydrogen sulfate
TfwkE,333.15,0.1,100,2,1107.2,Christabel et al. (2020),Density,Liquid,AAasxG,C[N+](C)(C)CCO.[Cl-],choline chloride,AALcAl,CC(=O)O,acetic acid,AAoChY,CC[n+]1ccn(C)c1.O=S(=O)([O-])O,1-ethyl-3-methylimidazolium hydrogen sulfate
TfwkE,333.15,0.2,100,2,1129.9,Christabel et al. (2020),Density,Liquid,AAasxG,C[N+](C)(C)CCO.[Cl-],choline chloride,AALcAl,CC(=O)O,acetic acid,AAoChY,CC[n+]1ccn(C)c1.O=S(=O)([O-])O,1-ethyl-3-methylimidazolium hydrogen sulfate
TfwkE,333.15,0.3,100,2,1151.8,Christabel et al. (2020),Density,Liquid,AAasxG,C[N+](C)(C)CCO.[Cl-],choline chloride,AALcAl,CC(=O)O,acetic acid,AAoChY,CC[n+]1ccn(C)c1.O=S(=O)([O-])O,1-ethyl-3-methylimidazolium hydrogen sulfate
TfwkE,333.15,0.4,100,2,1184.6,Christabel et al. (2020),Density,Liquid,AAasxG,C[N+](C)(C)CCO.[Cl-],choline chloride,AALcAl,CC(=O)O,acetic acid,AAoChY,CC[n+]1ccn(C)c1.O=S(=O)([O-])O,1-ethyl-3-methylimidazolium hydrogen sulfate
TfwkE,333.15,0.5,100,2,1209.3,Christabel et al. (2020),Density,Liquid,AAasxG,C[N+](C)(C)CCO.[Cl-],choline chloride,AALcAl,CC(=O)O,acetic acid,AAoChY,CC[n+]1ccn(C)c1.O=S(=O)([O-])O,1-ethyl-3-methylimidazolium hydrogen sulfate
TfwkE,333.15,0.6,100,2,1233.1,Christabel et al. (2020),Density,Liquid,AAasxG,C[N+](C)(C)CCO.[Cl-],choline chloride,AALcAl,CC(=O)O,acetic acid,AAoChY,CC[n+]1ccn(C)c1.O=S(=O)([O-])O,1-ethyl-3-methylimidazolium hydrogen sulfate
TfwkE,333.15,0.7,100,2,1262.8,Christabel et al. (2020),Density,Liquid,AAasxG,C[N+](C)(C)CCO.[Cl-],choline chloride,AALcAl,CC(=O)O,acetic acid,AAoChY,CC[n+]1ccn(C)c1.O=S(=O)([O-])O,1-ethyl-3-methylimidazolium hydrogen sulfate
TfwkE,333.15,0.8,100,2,1284.4,Christabel et al. (2020),Density,Liquid,AAasxG,C[N+](C)(C)CCO.[Cl-],choline chloride,AALcAl,CC(=O)O,acetic acid,AAoChY,CC[n+]1ccn(C)c1.O=S(=O)([O-])O,1-ethyl-3-methylimidazolium hydrogen sulfate
TfwkE,333.15,0.9,100,2,1310,Christabel et al. (2020),Density,Liquid,AAasxG,C[N+](C)(C)CCO.[Cl-],choline chloride,AALcAl,CC(=O)O,acetic acid,AAoChY,CC[n+]1ccn(C)c1.O=S(=O)([O-])O,1-ethyl-3-methylimidazolium hydrogen sulfate
TfwkE,333.15,1,100,2,1344.8,Christabel et al. (2020),Density,Liquid,AAasxG,C[N+](C)(C)CCO.[Cl-],choline chloride,AALcAl,CC(=O)O,acetic acid,AAoChY,CC[n+]1ccn(C)c1.O=S(=O)([O-])O,1-ethyl-3-methylimidazolium hydrogen sulfate
TfwkE,338.15,0,100,2,1061.3,Christabel et al. (2020),Density,Liquid,AAasxG,C[N+](C)(C)CCO.[Cl-],choline chloride,AALcAl,CC(=O)O,acetic acid,AAoChY,CC[n+]1ccn(C)c1.O=S(=O)([O-])O,1-ethyl-3-methylimidazolium hydrogen sulfate
TfwkE,338.15,0.1,100,2,1103.4,Christabel et al. (2020),Density,Liquid,AAasxG,C[N+](C)(C)CCO.[Cl-],choline chloride,AALcAl,CC(=O)O,acetic acid,AAoChY,CC[n+]1ccn(C)c1.O=S(=O)([O-])O,1-ethyl-3-methylimidazolium hydrogen sulfate
TfwkE,338.15,0.2,100,2,1126.3,Christabel et al. (2020),Density,Liquid,AAasxG,C[N+](C)(C)CCO.[Cl-],choline chloride,AALcAl,CC(=O)O,acetic acid,AAoChY,CC[n+]1ccn(C)c1.O=S(=O)([O-])O,1-ethyl-3-methylimidazolium hydrogen sulfate
TfwkE,338.15,0.3,100,2,1148.2,Christabel et al. (2020),Density,Liquid,AAasxG,C[N+](C)(C)CCO.[Cl-],choline chloride,AALcAl,CC(=O)O,acetic acid,AAoChY,CC[n+]1ccn(C)c1.O=S(=O)([O-])O,1-ethyl-3-methylimidazolium hydrogen sulfate
TfwkE,338.15,0.4,100,2,1181.2,Christabel et al. (2020),Density,Liquid,AAasxG,C[N+](C)(C)CCO.[Cl-],choline chloride,AALcAl,CC(=O)O,acetic acid,AAoChY,CC[n+]1ccn(C)c1.O=S(=O)([O-])O,1-ethyl-3-methylimidazolium hydrogen sulfate
TfwkE,338.15,0.5,100,2,1206,Christabel et al. (2020),Density,Liquid,AAasxG,C[N+](C)(C)CCO.[Cl-],choline chloride,AALcAl,CC(=O)O,acetic acid,AAoChY,CC[n+]1ccn(C)c1.O=S(=O)([O-])O,1-ethyl-3-methylimidazolium hydrogen sulfate
TfwkE,338.15,0.6,100,2,1229.8,Christabel et al. (2020),Density,Liquid,AAasxG,C[N+](C)(C)CCO.[Cl-],choline chloride,AALcAl,CC(=O)O,acetic acid,AAoChY,CC[n+]1ccn(C)c1.O=S(=O)([O-])O,1-ethyl-3-methylimidazolium hydrogen sulfate
TfwkE,338.15,0.7,100,2,1259.6,Christabel et al. (2020),Density,Liquid,AAasxG,C[N+](C)(C)CCO.[Cl-],choline chloride,AALcAl,CC(=O)O,acetic acid,AAoChY,CC[n+]1ccn(C)c1.O=S(=O)([O-])O,1-ethyl-3-methylimidazolium hydrogen sulfate
TfwkE,338.15,0.8,100,2,1281.3,Christabel et al. (2020),Density,Liquid,AAasxG,C[N+](C)(C)CCO.[Cl-],choline chloride,AALcAl,CC(=O)O,acetic acid,AAoChY,CC[n+]1ccn(C)c1.O=S(=O)([O-])O,1-ethyl-3-methylimidazolium hydrogen sulfate
TfwkE,338.15,0.9,100,2,1307,Christabel et al. (2020),Density,Liquid,AAasxG,C[N+](C)(C)CCO.[Cl-],choline chloride,AALcAl,CC(=O)O,acetic acid,AAoChY,CC[n+]1ccn(C)c1.O=S(=O)([O-])O,1-ethyl-3-methylimidazolium hydrogen sulfate
TfwkE,338.15,1,100,2,1341.8,Christabel et al. (2020),Density,Liquid,AAasxG,C[N+](C)(C)CCO.[Cl-],choline chloride,AALcAl,CC(=O)O,acetic acid,AAoChY,CC[n+]1ccn(C)c1.O=S(=O)([O-])O,1-ethyl-3-methylimidazolium hydrogen sulfate
TfwkE,343.15,0,100,2,1057.5,Christabel et al. (2020),Density,Liquid,AAasxG,C[N+](C)(C)CCO.[Cl-],choline chloride,AALcAl,CC(=O)O,acetic acid,AAoChY,CC[n+]1ccn(C)c1.O=S(=O)([O-])O,1-ethyl-3-methylimidazolium hydrogen sulfate
TfwkE,343.15,0.1,100,2,1099.7,Christabel et al. (2020),Density,Liquid,AAasxG,C[N+](C)(C)CCO.[Cl-],choline chloride,AALcAl,CC(=O)O,acetic acid,AAoChY,CC[n+]1ccn(C)c1.O=S(=O)([O-])O,1-ethyl-3-methylimidazolium hydrogen sulfate
TfwkE,343.15,0.2,100,2,1122.7,Christabel et al. (2020),Density,Liquid,AAasxG,C[N+](C)(C)CCO.[Cl-],choline chloride,AALcAl,CC(=O)O,acetic acid,AAoChY,CC[n+]1ccn(C)c1.O=S(=O)([O-])O,1-ethyl-3-methylimidazolium hydrogen sulfate
TfwkE,343.15,0.3,100,2,1144.6,Christabel et al. (2020),Density,Liquid,AAasxG,C[N+](C)(C)CCO.[Cl-],choline chloride,AALcAl,CC(=O)O,acetic acid,AAoChY,CC[n+]1ccn(C)c1.O=S(=O)([O-])O,1-ethyl-3-methylimidazolium hydrogen sulfate
TfwkE,343.15,0.4,100,2,1177.7,Christabel et al. (2020),Density,Liquid,AAasxG,C[N+](C)(C)CCO.[Cl-],choline chloride,AALcAl,CC(=O)O,acetic acid,AAoChY,CC[n+]1ccn(C)c1.O=S(=O)([O-])O,1-ethyl-3-methylimidazolium hydrogen sulfate
TfwkE,343.15,0.5,100,2,1202.6,Christabel et al. (2020),Density,Liquid,AAasxG,C[N+](C)(C)CCO.[Cl-],choline chloride,AALcAl,CC(=O)O,acetic acid,AAoChY,CC[n+]1ccn(C)c1.O=S(=O)([O-])O,1-ethyl-3-methylimidazolium hydrogen sulfate
TfwkE,343.15,0.6,100,2,1226.5,Christabel et al. (2020),Density,Liquid,AAasxG,C[N+](C)(C)CCO.[Cl-],choline chloride,AALcAl,CC(=O)O,acetic acid,AAoChY,CC[n+]1ccn(C)c1.O=S(=O)([O-])O,1-ethyl-3-methylimidazolium hydrogen sulfate
TfwkE,343.15,0.7,100,2,1256.4,Christabel et al. (2020),Density,Liquid,AAasxG,C[N+](C)(C)CCO.[Cl-],choline chloride,AALcAl,CC(=O)O,acetic acid,AAoChY,CC[n+]1ccn(C)c1.O=S(=O)([O-])O,1-ethyl-3-methylimidazolium hydrogen sulfate
TfwkE,343.15,0.8,100,2,1278.1,Christabel et al. (2020),Density,Liquid,AAasxG,C[N+](C)(C)CCO.[Cl-],choline chloride,AALcAl,CC(=O)O,acetic acid,AAoChY,CC[n+]1ccn(C)c1.O=S(=O)([O-])O,1-ethyl-3-methylimidazolium hydrogen sulfate
TfwkE,343.15,0.9,100,2,1303.9,Christabel et al. (2020),Density,Liquid,AAasxG,C[N+](C)(C)CCO.[Cl-],choline chloride,AALcAl,CC(=O)O,acetic acid,AAoChY,CC[n+]1ccn(C)c1.O=S(=O)([O-])O,1-ethyl-3-methylimidazolium hydrogen sulfate
TfwkE,343.15,1,100,2,1338.8,Christabel et al. (2020),Density,Liquid,AAasxG,C[N+](C)(C)CCO.[Cl-],choline chloride,AALcAl,CC(=O)O,acetic acid,AAoChY,CC[n+]1ccn(C)c1.O=S(=O)([O-])O,1-ethyl-3-methylimidazolium hydrogen sulfate