setid,"Temperature, K",Mole fraction of 1-ethyl-3-methylimidazolium hydrogen sulfate,"Pressure, kPa",Solvent: Mole ratio of glycerol to other component of binary solvent,"Specific density, kg/m<SUP>3</SUP>",reference,propertiy,phases,compound id 1,smile 1,compound name 1,compound id 2,smile 2,compound name 2,compound id 3,smile 3,compound name 3
AVHJE,293.15,0,100,2,1205.8,Christabel et al. (2020),Density,Liquid,AAasxG,C[N+](C)(C)CCO.[Cl-],choline chloride,AARkmK,OCC(O)CO,glycerol,AAoChY,CC[n+]1ccn(C)c1.O=S(=O)([O-])O,1-ethyl-3-methylimidazolium hydrogen sulfate
AVHJE,293.15,0.1,100,2,1214.1,Christabel et al. (2020),Density,Liquid,AAasxG,C[N+](C)(C)CCO.[Cl-],choline chloride,AARkmK,OCC(O)CO,glycerol,AAoChY,CC[n+]1ccn(C)c1.O=S(=O)([O-])O,1-ethyl-3-methylimidazolium hydrogen sulfate
AVHJE,293.15,0.2,100,2,1233,Christabel et al. (2020),Density,Liquid,AAasxG,C[N+](C)(C)CCO.[Cl-],choline chloride,AARkmK,OCC(O)CO,glycerol,AAoChY,CC[n+]1ccn(C)c1.O=S(=O)([O-])O,1-ethyl-3-methylimidazolium hydrogen sulfate
AVHJE,293.15,0.3,100,2,1247.1,Christabel et al. (2020),Density,Liquid,AAasxG,C[N+](C)(C)CCO.[Cl-],choline chloride,AARkmK,OCC(O)CO,glycerol,AAoChY,CC[n+]1ccn(C)c1.O=S(=O)([O-])O,1-ethyl-3-methylimidazolium hydrogen sulfate
AVHJE,293.15,0.4,100,2,1263,Christabel et al. (2020),Density,Liquid,AAasxG,C[N+](C)(C)CCO.[Cl-],choline chloride,AARkmK,OCC(O)CO,glycerol,AAoChY,CC[n+]1ccn(C)c1.O=S(=O)([O-])O,1-ethyl-3-methylimidazolium hydrogen sulfate
AVHJE,293.15,0.5,100,2,1276.1,Christabel et al. (2020),Density,Liquid,AAasxG,C[N+](C)(C)CCO.[Cl-],choline chloride,AARkmK,OCC(O)CO,glycerol,AAoChY,CC[n+]1ccn(C)c1.O=S(=O)([O-])O,1-ethyl-3-methylimidazolium hydrogen sulfate
AVHJE,293.15,0.6,100,2,1297.2,Christabel et al. (2020),Density,Liquid,AAasxG,C[N+](C)(C)CCO.[Cl-],choline chloride,AARkmK,OCC(O)CO,glycerol,AAoChY,CC[n+]1ccn(C)c1.O=S(=O)([O-])O,1-ethyl-3-methylimidazolium hydrogen sulfate
AVHJE,293.15,0.7,100,2,1314,Christabel et al. (2020),Density,Liquid,AAasxG,C[N+](C)(C)CCO.[Cl-],choline chloride,AARkmK,OCC(O)CO,glycerol,AAoChY,CC[n+]1ccn(C)c1.O=S(=O)([O-])O,1-ethyl-3-methylimidazolium hydrogen sulfate
AVHJE,293.15,0.8,100,2,1330.1,Christabel et al. (2020),Density,Liquid,AAasxG,C[N+](C)(C)CCO.[Cl-],choline chloride,AARkmK,OCC(O)CO,glycerol,AAoChY,CC[n+]1ccn(C)c1.O=S(=O)([O-])O,1-ethyl-3-methylimidazolium hydrogen sulfate
AVHJE,293.15,0.9,100,2,1346,Christabel et al. (2020),Density,Liquid,AAasxG,C[N+](C)(C)CCO.[Cl-],choline chloride,AARkmK,OCC(O)CO,glycerol,AAoChY,CC[n+]1ccn(C)c1.O=S(=O)([O-])O,1-ethyl-3-methylimidazolium hydrogen sulfate
AVHJE,293.15,1,100,2,1369.1,Christabel et al. (2020),Density,Liquid,AAasxG,C[N+](C)(C)CCO.[Cl-],choline chloride,AARkmK,OCC(O)CO,glycerol,AAoChY,CC[n+]1ccn(C)c1.O=S(=O)([O-])O,1-ethyl-3-methylimidazolium hydrogen sulfate
AVHJE,298.15,0,100,2,1202.4,Christabel et al. (2020),Density,Liquid,AAasxG,C[N+](C)(C)CCO.[Cl-],choline chloride,AARkmK,OCC(O)CO,glycerol,AAoChY,CC[n+]1ccn(C)c1.O=S(=O)([O-])O,1-ethyl-3-methylimidazolium hydrogen sulfate
AVHJE,298.15,0.1,100,2,1211.3,Christabel et al. (2020),Density,Liquid,AAasxG,C[N+](C)(C)CCO.[Cl-],choline chloride,AARkmK,OCC(O)CO,glycerol,AAoChY,CC[n+]1ccn(C)c1.O=S(=O)([O-])O,1-ethyl-3-methylimidazolium hydrogen sulfate
AVHJE,298.15,0.2,100,2,1230.2,Christabel et al. (2020),Density,Liquid,AAasxG,C[N+](C)(C)CCO.[Cl-],choline chloride,AARkmK,OCC(O)CO,glycerol,AAoChY,CC[n+]1ccn(C)c1.O=S(=O)([O-])O,1-ethyl-3-methylimidazolium hydrogen sulfate
AVHJE,298.15,0.3,100,2,1244.2,Christabel et al. (2020),Density,Liquid,AAasxG,C[N+](C)(C)CCO.[Cl-],choline chloride,AARkmK,OCC(O)CO,glycerol,AAoChY,CC[n+]1ccn(C)c1.O=S(=O)([O-])O,1-ethyl-3-methylimidazolium hydrogen sulfate
AVHJE,298.15,0.4,100,2,1260,Christabel et al. (2020),Density,Liquid,AAasxG,C[N+](C)(C)CCO.[Cl-],choline chloride,AARkmK,OCC(O)CO,glycerol,AAoChY,CC[n+]1ccn(C)c1.O=S(=O)([O-])O,1-ethyl-3-methylimidazolium hydrogen sulfate
AVHJE,298.15,0.5,100,2,1273.2,Christabel et al. (2020),Density,Liquid,AAasxG,C[N+](C)(C)CCO.[Cl-],choline chloride,AARkmK,OCC(O)CO,glycerol,AAoChY,CC[n+]1ccn(C)c1.O=S(=O)([O-])O,1-ethyl-3-methylimidazolium hydrogen sulfate
AVHJE,298.15,0.6,100,2,1294.2,Christabel et al. (2020),Density,Liquid,AAasxG,C[N+](C)(C)CCO.[Cl-],choline chloride,AARkmK,OCC(O)CO,glycerol,AAoChY,CC[n+]1ccn(C)c1.O=S(=O)([O-])O,1-ethyl-3-methylimidazolium hydrogen sulfate
AVHJE,298.15,0.7,100,2,1311,Christabel et al. (2020),Density,Liquid,AAasxG,C[N+](C)(C)CCO.[Cl-],choline chloride,AARkmK,OCC(O)CO,glycerol,AAoChY,CC[n+]1ccn(C)c1.O=S(=O)([O-])O,1-ethyl-3-methylimidazolium hydrogen sulfate
AVHJE,298.15,0.8,100,2,1327,Christabel et al. (2020),Density,Liquid,AAasxG,C[N+](C)(C)CCO.[Cl-],choline chloride,AARkmK,OCC(O)CO,glycerol,AAoChY,CC[n+]1ccn(C)c1.O=S(=O)([O-])O,1-ethyl-3-methylimidazolium hydrogen sulfate
AVHJE,298.15,0.9,100,2,1342.9,Christabel et al. (2020),Density,Liquid,AAasxG,C[N+](C)(C)CCO.[Cl-],choline chloride,AARkmK,OCC(O)CO,glycerol,AAoChY,CC[n+]1ccn(C)c1.O=S(=O)([O-])O,1-ethyl-3-methylimidazolium hydrogen sulfate
AVHJE,298.15,1,100,2,1366,Christabel et al. (2020),Density,Liquid,AAasxG,C[N+](C)(C)CCO.[Cl-],choline chloride,AARkmK,OCC(O)CO,glycerol,AAoChY,CC[n+]1ccn(C)c1.O=S(=O)([O-])O,1-ethyl-3-methylimidazolium hydrogen sulfate
AVHJE,303.15,0,100,2,1199.6,Christabel et al. (2020),Density,Liquid,AAasxG,C[N+](C)(C)CCO.[Cl-],choline chloride,AARkmK,OCC(O)CO,glycerol,AAoChY,CC[n+]1ccn(C)c1.O=S(=O)([O-])O,1-ethyl-3-methylimidazolium hydrogen sulfate
AVHJE,303.15,0.1,100,2,1208.4,Christabel et al. (2020),Density,Liquid,AAasxG,C[N+](C)(C)CCO.[Cl-],choline chloride,AARkmK,OCC(O)CO,glycerol,AAoChY,CC[n+]1ccn(C)c1.O=S(=O)([O-])O,1-ethyl-3-methylimidazolium hydrogen sulfate
AVHJE,303.15,0.2,100,2,1227.3,Christabel et al. (2020),Density,Liquid,AAasxG,C[N+](C)(C)CCO.[Cl-],choline chloride,AARkmK,OCC(O)CO,glycerol,AAoChY,CC[n+]1ccn(C)c1.O=S(=O)([O-])O,1-ethyl-3-methylimidazolium hydrogen sulfate
AVHJE,303.15,0.3,100,2,1241.3,Christabel et al. (2020),Density,Liquid,AAasxG,C[N+](C)(C)CCO.[Cl-],choline chloride,AARkmK,OCC(O)CO,glycerol,AAoChY,CC[n+]1ccn(C)c1.O=S(=O)([O-])O,1-ethyl-3-methylimidazolium hydrogen sulfate
AVHJE,303.15,0.4,100,2,1257.1,Christabel et al. (2020),Density,Liquid,AAasxG,C[N+](C)(C)CCO.[Cl-],choline chloride,AARkmK,OCC(O)CO,glycerol,AAoChY,CC[n+]1ccn(C)c1.O=S(=O)([O-])O,1-ethyl-3-methylimidazolium hydrogen sulfate
AVHJE,303.15,0.5,100,2,1270.3,Christabel et al. (2020),Density,Liquid,AAasxG,C[N+](C)(C)CCO.[Cl-],choline chloride,AARkmK,OCC(O)CO,glycerol,AAoChY,CC[n+]1ccn(C)c1.O=S(=O)([O-])O,1-ethyl-3-methylimidazolium hydrogen sulfate
AVHJE,303.15,0.6,100,2,1291.3,Christabel et al. (2020),Density,Liquid,AAasxG,C[N+](C)(C)CCO.[Cl-],choline chloride,AARkmK,OCC(O)CO,glycerol,AAoChY,CC[n+]1ccn(C)c1.O=S(=O)([O-])O,1-ethyl-3-methylimidazolium hydrogen sulfate
AVHJE,303.15,0.7,100,2,1308,Christabel et al. (2020),Density,Liquid,AAasxG,C[N+](C)(C)CCO.[Cl-],choline chloride,AARkmK,OCC(O)CO,glycerol,AAoChY,CC[n+]1ccn(C)c1.O=S(=O)([O-])O,1-ethyl-3-methylimidazolium hydrogen sulfate
AVHJE,303.15,0.8,100,2,1324,Christabel et al. (2020),Density,Liquid,AAasxG,C[N+](C)(C)CCO.[Cl-],choline chloride,AARkmK,OCC(O)CO,glycerol,AAoChY,CC[n+]1ccn(C)c1.O=S(=O)([O-])O,1-ethyl-3-methylimidazolium hydrogen sulfate
AVHJE,303.15,0.9,100,2,1339.8,Christabel et al. (2020),Density,Liquid,AAasxG,C[N+](C)(C)CCO.[Cl-],choline chloride,AARkmK,OCC(O)CO,glycerol,AAoChY,CC[n+]1ccn(C)c1.O=S(=O)([O-])O,1-ethyl-3-methylimidazolium hydrogen sulfate
AVHJE,303.15,1,100,2,1362.9,Christabel et al. (2020),Density,Liquid,AAasxG,C[N+](C)(C)CCO.[Cl-],choline chloride,AARkmK,OCC(O)CO,glycerol,AAoChY,CC[n+]1ccn(C)c1.O=S(=O)([O-])O,1-ethyl-3-methylimidazolium hydrogen sulfate
AVHJE,308.15,0,100,2,1196.8,Christabel et al. (2020),Density,Liquid,AAasxG,C[N+](C)(C)CCO.[Cl-],choline chloride,AARkmK,OCC(O)CO,glycerol,AAoChY,CC[n+]1ccn(C)c1.O=S(=O)([O-])O,1-ethyl-3-methylimidazolium hydrogen sulfate
AVHJE,308.15,0.1,100,2,1205.5,Christabel et al. (2020),Density,Liquid,AAasxG,C[N+](C)(C)CCO.[Cl-],choline chloride,AARkmK,OCC(O)CO,glycerol,AAoChY,CC[n+]1ccn(C)c1.O=S(=O)([O-])O,1-ethyl-3-methylimidazolium hydrogen sulfate
AVHJE,308.15,0.2,100,2,1224.4,Christabel et al. (2020),Density,Liquid,AAasxG,C[N+](C)(C)CCO.[Cl-],choline chloride,AARkmK,OCC(O)CO,glycerol,AAoChY,CC[n+]1ccn(C)c1.O=S(=O)([O-])O,1-ethyl-3-methylimidazolium hydrogen sulfate
AVHJE,308.15,0.3,100,2,1238.3,Christabel et al. (2020),Density,Liquid,AAasxG,C[N+](C)(C)CCO.[Cl-],choline chloride,AARkmK,OCC(O)CO,glycerol,AAoChY,CC[n+]1ccn(C)c1.O=S(=O)([O-])O,1-ethyl-3-methylimidazolium hydrogen sulfate
AVHJE,308.15,0.4,100,2,1254.1,Christabel et al. (2020),Density,Liquid,AAasxG,C[N+](C)(C)CCO.[Cl-],choline chloride,AARkmK,OCC(O)CO,glycerol,AAoChY,CC[n+]1ccn(C)c1.O=S(=O)([O-])O,1-ethyl-3-methylimidazolium hydrogen sulfate
AVHJE,308.15,0.5,100,2,1267.3,Christabel et al. (2020),Density,Liquid,AAasxG,C[N+](C)(C)CCO.[Cl-],choline chloride,AARkmK,OCC(O)CO,glycerol,AAoChY,CC[n+]1ccn(C)c1.O=S(=O)([O-])O,1-ethyl-3-methylimidazolium hydrogen sulfate
AVHJE,308.15,0.6,100,2,1288.3,Christabel et al. (2020),Density,Liquid,AAasxG,C[N+](C)(C)CCO.[Cl-],choline chloride,AARkmK,OCC(O)CO,glycerol,AAoChY,CC[n+]1ccn(C)c1.O=S(=O)([O-])O,1-ethyl-3-methylimidazolium hydrogen sulfate
AVHJE,308.15,0.7,100,2,1305,Christabel et al. (2020),Density,Liquid,AAasxG,C[N+](C)(C)CCO.[Cl-],choline chloride,AARkmK,OCC(O)CO,glycerol,AAoChY,CC[n+]1ccn(C)c1.O=S(=O)([O-])O,1-ethyl-3-methylimidazolium hydrogen sulfate
AVHJE,308.15,0.8,100,2,1321.6,Christabel et al. (2020),Density,Liquid,AAasxG,C[N+](C)(C)CCO.[Cl-],choline chloride,AARkmK,OCC(O)CO,glycerol,AAoChY,CC[n+]1ccn(C)c1.O=S(=O)([O-])O,1-ethyl-3-methylimidazolium hydrogen sulfate
AVHJE,308.15,0.9,100,2,1336.8,Christabel et al. (2020),Density,Liquid,AAasxG,C[N+](C)(C)CCO.[Cl-],choline chloride,AARkmK,OCC(O)CO,glycerol,AAoChY,CC[n+]1ccn(C)c1.O=S(=O)([O-])O,1-ethyl-3-methylimidazolium hydrogen sulfate
AVHJE,308.15,1,100,2,1359.9,Christabel et al. (2020),Density,Liquid,AAasxG,C[N+](C)(C)CCO.[Cl-],choline chloride,AARkmK,OCC(O)CO,glycerol,AAoChY,CC[n+]1ccn(C)c1.O=S(=O)([O-])O,1-ethyl-3-methylimidazolium hydrogen sulfate
AVHJE,313.15,0,100,2,1193.9,Christabel et al. (2020),Density,Liquid,AAasxG,C[N+](C)(C)CCO.[Cl-],choline chloride,AARkmK,OCC(O)CO,glycerol,AAoChY,CC[n+]1ccn(C)c1.O=S(=O)([O-])O,1-ethyl-3-methylimidazolium hydrogen sulfate
AVHJE,313.15,0.1,100,2,1202.7,Christabel et al. (2020),Density,Liquid,AAasxG,C[N+](C)(C)CCO.[Cl-],choline chloride,AARkmK,OCC(O)CO,glycerol,AAoChY,CC[n+]1ccn(C)c1.O=S(=O)([O-])O,1-ethyl-3-methylimidazolium hydrogen sulfate
AVHJE,313.15,0.2,100,2,1221.4,Christabel et al. (2020),Density,Liquid,AAasxG,C[N+](C)(C)CCO.[Cl-],choline chloride,AARkmK,OCC(O)CO,glycerol,AAoChY,CC[n+]1ccn(C)c1.O=S(=O)([O-])O,1-ethyl-3-methylimidazolium hydrogen sulfate
AVHJE,313.15,0.3,100,2,1235.4,Christabel et al. (2020),Density,Liquid,AAasxG,C[N+](C)(C)CCO.[Cl-],choline chloride,AARkmK,OCC(O)CO,glycerol,AAoChY,CC[n+]1ccn(C)c1.O=S(=O)([O-])O,1-ethyl-3-methylimidazolium hydrogen sulfate
AVHJE,313.15,0.4,100,2,1251.2,Christabel et al. (2020),Density,Liquid,AAasxG,C[N+](C)(C)CCO.[Cl-],choline chloride,AARkmK,OCC(O)CO,glycerol,AAoChY,CC[n+]1ccn(C)c1.O=S(=O)([O-])O,1-ethyl-3-methylimidazolium hydrogen sulfate
AVHJE,313.15,0.5,100,2,1264.3,Christabel et al. (2020),Density,Liquid,AAasxG,C[N+](C)(C)CCO.[Cl-],choline chloride,AARkmK,OCC(O)CO,glycerol,AAoChY,CC[n+]1ccn(C)c1.O=S(=O)([O-])O,1-ethyl-3-methylimidazolium hydrogen sulfate
AVHJE,313.15,0.6,100,2,1285.3,Christabel et al. (2020),Density,Liquid,AAasxG,C[N+](C)(C)CCO.[Cl-],choline chloride,AARkmK,OCC(O)CO,glycerol,AAoChY,CC[n+]1ccn(C)c1.O=S(=O)([O-])O,1-ethyl-3-methylimidazolium hydrogen sulfate
AVHJE,313.15,0.7,100,2,1302,Christabel et al. (2020),Density,Liquid,AAasxG,C[N+](C)(C)CCO.[Cl-],choline chloride,AARkmK,OCC(O)CO,glycerol,AAoChY,CC[n+]1ccn(C)c1.O=S(=O)([O-])O,1-ethyl-3-methylimidazolium hydrogen sulfate
AVHJE,313.15,0.8,100,2,1318.6,Christabel et al. (2020),Density,Liquid,AAasxG,C[N+](C)(C)CCO.[Cl-],choline chloride,AARkmK,OCC(O)CO,glycerol,AAoChY,CC[n+]1ccn(C)c1.O=S(=O)([O-])O,1-ethyl-3-methylimidazolium hydrogen sulfate
AVHJE,313.15,0.9,100,2,1333.8,Christabel et al. (2020),Density,Liquid,AAasxG,C[N+](C)(C)CCO.[Cl-],choline chloride,AARkmK,OCC(O)CO,glycerol,AAoChY,CC[n+]1ccn(C)c1.O=S(=O)([O-])O,1-ethyl-3-methylimidazolium hydrogen sulfate
AVHJE,313.15,1,100,2,1356.7,Christabel et al. (2020),Density,Liquid,AAasxG,C[N+](C)(C)CCO.[Cl-],choline chloride,AARkmK,OCC(O)CO,glycerol,AAoChY,CC[n+]1ccn(C)c1.O=S(=O)([O-])O,1-ethyl-3-methylimidazolium hydrogen sulfate
AVHJE,318.15,0,100,2,1191.1,Christabel et al. (2020),Density,Liquid,AAasxG,C[N+](C)(C)CCO.[Cl-],choline chloride,AARkmK,OCC(O)CO,glycerol,AAoChY,CC[n+]1ccn(C)c1.O=S(=O)([O-])O,1-ethyl-3-methylimidazolium hydrogen sulfate
AVHJE,318.15,0.1,100,2,1199.8,Christabel et al. (2020),Density,Liquid,AAasxG,C[N+](C)(C)CCO.[Cl-],choline chloride,AARkmK,OCC(O)CO,glycerol,AAoChY,CC[n+]1ccn(C)c1.O=S(=O)([O-])O,1-ethyl-3-methylimidazolium hydrogen sulfate
AVHJE,318.15,0.2,100,2,1218.5,Christabel et al. (2020),Density,Liquid,AAasxG,C[N+](C)(C)CCO.[Cl-],choline chloride,AARkmK,OCC(O)CO,glycerol,AAoChY,CC[n+]1ccn(C)c1.O=S(=O)([O-])O,1-ethyl-3-methylimidazolium hydrogen sulfate
AVHJE,318.15,0.3,100,2,1232.5,Christabel et al. (2020),Density,Liquid,AAasxG,C[N+](C)(C)CCO.[Cl-],choline chloride,AARkmK,OCC(O)CO,glycerol,AAoChY,CC[n+]1ccn(C)c1.O=S(=O)([O-])O,1-ethyl-3-methylimidazolium hydrogen sulfate
AVHJE,318.15,0.4,100,2,1248.2,Christabel et al. (2020),Density,Liquid,AAasxG,C[N+](C)(C)CCO.[Cl-],choline chloride,AARkmK,OCC(O)CO,glycerol,AAoChY,CC[n+]1ccn(C)c1.O=S(=O)([O-])O,1-ethyl-3-methylimidazolium hydrogen sulfate
AVHJE,318.15,0.5,100,2,1261.4,Christabel et al. (2020),Density,Liquid,AAasxG,C[N+](C)(C)CCO.[Cl-],choline chloride,AARkmK,OCC(O)CO,glycerol,AAoChY,CC[n+]1ccn(C)c1.O=S(=O)([O-])O,1-ethyl-3-methylimidazolium hydrogen sulfate
AVHJE,318.15,0.6,100,2,1282.3,Christabel et al. (2020),Density,Liquid,AAasxG,C[N+](C)(C)CCO.[Cl-],choline chloride,AARkmK,OCC(O)CO,glycerol,AAoChY,CC[n+]1ccn(C)c1.O=S(=O)([O-])O,1-ethyl-3-methylimidazolium hydrogen sulfate
AVHJE,318.15,0.7,100,2,1299,Christabel et al. (2020),Density,Liquid,AAasxG,C[N+](C)(C)CCO.[Cl-],choline chloride,AARkmK,OCC(O)CO,glycerol,AAoChY,CC[n+]1ccn(C)c1.O=S(=O)([O-])O,1-ethyl-3-methylimidazolium hydrogen sulfate
AVHJE,318.15,0.8,100,2,1315.6,Christabel et al. (2020),Density,Liquid,AAasxG,C[N+](C)(C)CCO.[Cl-],choline chloride,AARkmK,OCC(O)CO,glycerol,AAoChY,CC[n+]1ccn(C)c1.O=S(=O)([O-])O,1-ethyl-3-methylimidazolium hydrogen sulfate
AVHJE,318.15,0.9,100,2,1330.8,Christabel et al. (2020),Density,Liquid,AAasxG,C[N+](C)(C)CCO.[Cl-],choline chloride,AARkmK,OCC(O)CO,glycerol,AAoChY,CC[n+]1ccn(C)c1.O=S(=O)([O-])O,1-ethyl-3-methylimidazolium hydrogen sulfate
AVHJE,318.15,1,100,2,1353.7,Christabel et al. (2020),Density,Liquid,AAasxG,C[N+](C)(C)CCO.[Cl-],choline chloride,AARkmK,OCC(O)CO,glycerol,AAoChY,CC[n+]1ccn(C)c1.O=S(=O)([O-])O,1-ethyl-3-methylimidazolium hydrogen sulfate
AVHJE,323.15,0,100,2,1188.2,Christabel et al. (2020),Density,Liquid,AAasxG,C[N+](C)(C)CCO.[Cl-],choline chloride,AARkmK,OCC(O)CO,glycerol,AAoChY,CC[n+]1ccn(C)c1.O=S(=O)([O-])O,1-ethyl-3-methylimidazolium hydrogen sulfate
AVHJE,323.15,0.1,100,2,1196.9,Christabel et al. (2020),Density,Liquid,AAasxG,C[N+](C)(C)CCO.[Cl-],choline chloride,AARkmK,OCC(O)CO,glycerol,AAoChY,CC[n+]1ccn(C)c1.O=S(=O)([O-])O,1-ethyl-3-methylimidazolium hydrogen sulfate
AVHJE,323.15,0.2,100,2,1215.6,Christabel et al. (2020),Density,Liquid,AAasxG,C[N+](C)(C)CCO.[Cl-],choline chloride,AARkmK,OCC(O)CO,glycerol,AAoChY,CC[n+]1ccn(C)c1.O=S(=O)([O-])O,1-ethyl-3-methylimidazolium hydrogen sulfate
AVHJE,323.15,0.3,100,2,1229.5,Christabel et al. (2020),Density,Liquid,AAasxG,C[N+](C)(C)CCO.[Cl-],choline chloride,AARkmK,OCC(O)CO,glycerol,AAoChY,CC[n+]1ccn(C)c1.O=S(=O)([O-])O,1-ethyl-3-methylimidazolium hydrogen sulfate
AVHJE,323.15,0.4,100,2,1245.3,Christabel et al. (2020),Density,Liquid,AAasxG,C[N+](C)(C)CCO.[Cl-],choline chloride,AARkmK,OCC(O)CO,glycerol,AAoChY,CC[n+]1ccn(C)c1.O=S(=O)([O-])O,1-ethyl-3-methylimidazolium hydrogen sulfate
AVHJE,323.15,0.5,100,2,1258.4,Christabel et al. (2020),Density,Liquid,AAasxG,C[N+](C)(C)CCO.[Cl-],choline chloride,AARkmK,OCC(O)CO,glycerol,AAoChY,CC[n+]1ccn(C)c1.O=S(=O)([O-])O,1-ethyl-3-methylimidazolium hydrogen sulfate
AVHJE,323.15,0.6,100,2,1279.3,Christabel et al. (2020),Density,Liquid,AAasxG,C[N+](C)(C)CCO.[Cl-],choline chloride,AARkmK,OCC(O)CO,glycerol,AAoChY,CC[n+]1ccn(C)c1.O=S(=O)([O-])O,1-ethyl-3-methylimidazolium hydrogen sulfate
AVHJE,323.15,0.7,100,2,1296,Christabel et al. (2020),Density,Liquid,AAasxG,C[N+](C)(C)CCO.[Cl-],choline chloride,AARkmK,OCC(O)CO,glycerol,AAoChY,CC[n+]1ccn(C)c1.O=S(=O)([O-])O,1-ethyl-3-methylimidazolium hydrogen sulfate
AVHJE,323.15,0.8,100,2,1312.6,Christabel et al. (2020),Density,Liquid,AAasxG,C[N+](C)(C)CCO.[Cl-],choline chloride,AARkmK,OCC(O)CO,glycerol,AAoChY,CC[n+]1ccn(C)c1.O=S(=O)([O-])O,1-ethyl-3-methylimidazolium hydrogen sulfate
AVHJE,323.15,0.9,100,2,1327.8,Christabel et al. (2020),Density,Liquid,AAasxG,C[N+](C)(C)CCO.[Cl-],choline chloride,AARkmK,OCC(O)CO,glycerol,AAoChY,CC[n+]1ccn(C)c1.O=S(=O)([O-])O,1-ethyl-3-methylimidazolium hydrogen sulfate
AVHJE,323.15,1,100,2,1350.7,Christabel et al. (2020),Density,Liquid,AAasxG,C[N+](C)(C)CCO.[Cl-],choline chloride,AARkmK,OCC(O)CO,glycerol,AAoChY,CC[n+]1ccn(C)c1.O=S(=O)([O-])O,1-ethyl-3-methylimidazolium hydrogen sulfate
AVHJE,328.15,0,100,2,1185.4,Christabel et al. (2020),Density,Liquid,AAasxG,C[N+](C)(C)CCO.[Cl-],choline chloride,AARkmK,OCC(O)CO,glycerol,AAoChY,CC[n+]1ccn(C)c1.O=S(=O)([O-])O,1-ethyl-3-methylimidazolium hydrogen sulfate
AVHJE,328.15,0.1,100,2,1194,Christabel et al. (2020),Density,Liquid,AAasxG,C[N+](C)(C)CCO.[Cl-],choline chloride,AARkmK,OCC(O)CO,glycerol,AAoChY,CC[n+]1ccn(C)c1.O=S(=O)([O-])O,1-ethyl-3-methylimidazolium hydrogen sulfate
AVHJE,328.15,0.2,100,2,1212.7,Christabel et al. (2020),Density,Liquid,AAasxG,C[N+](C)(C)CCO.[Cl-],choline chloride,AARkmK,OCC(O)CO,glycerol,AAoChY,CC[n+]1ccn(C)c1.O=S(=O)([O-])O,1-ethyl-3-methylimidazolium hydrogen sulfate
AVHJE,328.15,0.3,100,2,1226.6,Christabel et al. (2020),Density,Liquid,AAasxG,C[N+](C)(C)CCO.[Cl-],choline chloride,AARkmK,OCC(O)CO,glycerol,AAoChY,CC[n+]1ccn(C)c1.O=S(=O)([O-])O,1-ethyl-3-methylimidazolium hydrogen sulfate
AVHJE,328.15,0.4,100,2,1242.3,Christabel et al. (2020),Density,Liquid,AAasxG,C[N+](C)(C)CCO.[Cl-],choline chloride,AARkmK,OCC(O)CO,glycerol,AAoChY,CC[n+]1ccn(C)c1.O=S(=O)([O-])O,1-ethyl-3-methylimidazolium hydrogen sulfate
AVHJE,328.15,0.5,100,2,1255.5,Christabel et al. (2020),Density,Liquid,AAasxG,C[N+](C)(C)CCO.[Cl-],choline chloride,AARkmK,OCC(O)CO,glycerol,AAoChY,CC[n+]1ccn(C)c1.O=S(=O)([O-])O,1-ethyl-3-methylimidazolium hydrogen sulfate
AVHJE,328.15,0.6,100,2,1276.4,Christabel et al. (2020),Density,Liquid,AAasxG,C[N+](C)(C)CCO.[Cl-],choline chloride,AARkmK,OCC(O)CO,glycerol,AAoChY,CC[n+]1ccn(C)c1.O=S(=O)([O-])O,1-ethyl-3-methylimidazolium hydrogen sulfate
AVHJE,328.15,0.7,100,2,1293,Christabel et al. (2020),Density,Liquid,AAasxG,C[N+](C)(C)CCO.[Cl-],choline chloride,AARkmK,OCC(O)CO,glycerol,AAoChY,CC[n+]1ccn(C)c1.O=S(=O)([O-])O,1-ethyl-3-methylimidazolium hydrogen sulfate
AVHJE,328.15,0.8,100,2,1309.6,Christabel et al. (2020),Density,Liquid,AAasxG,C[N+](C)(C)CCO.[Cl-],choline chloride,AARkmK,OCC(O)CO,glycerol,AAoChY,CC[n+]1ccn(C)c1.O=S(=O)([O-])O,1-ethyl-3-methylimidazolium hydrogen sulfate
AVHJE,328.15,0.9,100,2,1324.8,Christabel et al. (2020),Density,Liquid,AAasxG,C[N+](C)(C)CCO.[Cl-],choline chloride,AARkmK,OCC(O)CO,glycerol,AAoChY,CC[n+]1ccn(C)c1.O=S(=O)([O-])O,1-ethyl-3-methylimidazolium hydrogen sulfate
AVHJE,328.15,1,100,2,1347.7,Christabel et al. (2020),Density,Liquid,AAasxG,C[N+](C)(C)CCO.[Cl-],choline chloride,AARkmK,OCC(O)CO,glycerol,AAoChY,CC[n+]1ccn(C)c1.O=S(=O)([O-])O,1-ethyl-3-methylimidazolium hydrogen sulfate