setid,Solvent: Volume ratio of diethylammonium acetate to other component of binary solvent,"Pressure, kPa","Temperature, K","Specific density, kg/m<SUP>3</SUP>",reference,propertiy,phases,compound id 1,smile 1,compound name 1,compound id 2,smile 2,compound name 2,compound id 3,smile 3,compound name 3
ySgxO,0.3,101,298.15,1037.31,Vasantha et al. (2012),Density,Liquid,Crystal of pure component 1,,3,AAZfHj,O=C(O)CNCC(=O)O,N-(carboxymethyl)glycine,AADYJk,O,water
ySgxO,0.5,101,298.15,1030.5,Vasantha et al. (2012),Density,Liquid,Crystal of pure component 1,,3,AAZfHj,O=C(O)CNCC(=O)O,N-(carboxymethyl)glycine,AADYJk,O,water
ySgxO,0.7,101,298.15,1034.21,Vasantha et al. (2012),Density,Liquid,Crystal of pure component 1,,3,AAZfHj,O=C(O)CNCC(=O)O,N-(carboxymethyl)glycine,AADYJk,O,water