setid,"Temperature, K",Mole fraction of 1-ethyl-3-methylimidazolium hydrogen sulfate,"Pressure, kPa",Solvent: Mole ratio of acetic acid to other component of binary solvent,"Specific density, kg/m<SUP>3</SUP>",reference,propertiy,phases,compound id 1,smile 1,compound name 1,compound id 2,smile 2,compound name 2,compound id 3,smile 3,compound name 3
TfwkE,293.15,0,100,2,1096.4,Christabel et al. (2020),Density,Liquid,AAasxG,C[N+](C)(C)CCO.[Cl-],choline chloride,AALcAl,CC(=O)O,acetic acid,AAoChY,CC[n+]1ccn(C)c1.O=S(=O)([O-])O,1-ethyl-3-methylimidazolium hydrogen sulfate
TfwkE,293.15,0.1,100,2,1137.3,Christabel et al. (2020),Density,Liquid,AAasxG,C[N+](C)(C)CCO.[Cl-],choline chloride,AALcAl,CC(=O)O,acetic acid,AAoChY,CC[n+]1ccn(C)c1.O=S(=O)([O-])O,1-ethyl-3-methylimidazolium hydrogen sulfate
TfwkE,293.15,0.2,100,2,1159.5,Christabel et al. (2020),Density,Liquid,AAasxG,C[N+](C)(C)CCO.[Cl-],choline chloride,AALcAl,CC(=O)O,acetic acid,AAoChY,CC[n+]1ccn(C)c1.O=S(=O)([O-])O,1-ethyl-3-methylimidazolium hydrogen sulfate
TfwkE,293.15,0.3,100,2,1180.7,Christabel et al. (2020),Density,Liquid,AAasxG,C[N+](C)(C)CCO.[Cl-],choline chloride,AALcAl,CC(=O)O,acetic acid,AAoChY,CC[n+]1ccn(C)c1.O=S(=O)([O-])O,1-ethyl-3-methylimidazolium hydrogen sulfate
TfwkE,293.15,0.4,100,2,1212.7,Christabel et al. (2020),Density,Liquid,AAasxG,C[N+](C)(C)CCO.[Cl-],choline chloride,AALcAl,CC(=O)O,acetic acid,AAoChY,CC[n+]1ccn(C)c1.O=S(=O)([O-])O,1-ethyl-3-methylimidazolium hydrogen sulfate
TfwkE,293.15,0.5,100,2,1236.8,Christabel et al. (2020),Density,Liquid,AAasxG,C[N+](C)(C)CCO.[Cl-],choline chloride,AALcAl,CC(=O)O,acetic acid,AAoChY,CC[n+]1ccn(C)c1.O=S(=O)([O-])O,1-ethyl-3-methylimidazolium hydrogen sulfate
TfwkE,293.15,0.6,100,2,1259.9,Christabel et al. (2020),Density,Liquid,AAasxG,C[N+](C)(C)CCO.[Cl-],choline chloride,AALcAl,CC(=O)O,acetic acid,AAoChY,CC[n+]1ccn(C)c1.O=S(=O)([O-])O,1-ethyl-3-methylimidazolium hydrogen sulfate
TfwkE,293.15,0.7,100,2,1289,Christabel et al. (2020),Density,Liquid,AAasxG,C[N+](C)(C)CCO.[Cl-],choline chloride,AALcAl,CC(=O)O,acetic acid,AAoChY,CC[n+]1ccn(C)c1.O=S(=O)([O-])O,1-ethyl-3-methylimidazolium hydrogen sulfate
TfwkE,293.15,0.8,100,2,1310.1,Christabel et al. (2020),Density,Liquid,AAasxG,C[N+](C)(C)CCO.[Cl-],choline chloride,AALcAl,CC(=O)O,acetic acid,AAoChY,CC[n+]1ccn(C)c1.O=S(=O)([O-])O,1-ethyl-3-methylimidazolium hydrogen sulfate
TfwkE,293.15,0.9,100,2,1335.1,Christabel et al. (2020),Density,Liquid,AAasxG,C[N+](C)(C)CCO.[Cl-],choline chloride,AALcAl,CC(=O)O,acetic acid,AAoChY,CC[n+]1ccn(C)c1.O=S(=O)([O-])O,1-ethyl-3-methylimidazolium hydrogen sulfate
TfwkE,293.15,1,100,2,1369.1,Christabel et al. (2020),Density,Liquid,AAasxG,C[N+](C)(C)CCO.[Cl-],choline chloride,AALcAl,CC(=O)O,acetic acid,AAoChY,CC[n+]1ccn(C)c1.O=S(=O)([O-])O,1-ethyl-3-methylimidazolium hydrogen sulfate
TfwkE,298.15,0,100,2,1092.5,Christabel et al. (2020),Density,Liquid,AAasxG,C[N+](C)(C)CCO.[Cl-],choline chloride,AALcAl,CC(=O)O,acetic acid,AAoChY,CC[n+]1ccn(C)c1.O=S(=O)([O-])O,1-ethyl-3-methylimidazolium hydrogen sulfate
TfwkE,298.15,0.1,100,2,1133.5,Christabel et al. (2020),Density,Liquid,AAasxG,C[N+](C)(C)CCO.[Cl-],choline chloride,AALcAl,CC(=O)O,acetic acid,AAoChY,CC[n+]1ccn(C)c1.O=S(=O)([O-])O,1-ethyl-3-methylimidazolium hydrogen sulfate
TfwkE,298.15,0.2,100,2,1155.8,Christabel et al. (2020),Density,Liquid,AAasxG,C[N+](C)(C)CCO.[Cl-],choline chloride,AALcAl,CC(=O)O,acetic acid,AAoChY,CC[n+]1ccn(C)c1.O=S(=O)([O-])O,1-ethyl-3-methylimidazolium hydrogen sulfate
TfwkE,298.15,0.3,100,2,1177.1,Christabel et al. (2020),Density,Liquid,AAasxG,C[N+](C)(C)CCO.[Cl-],choline chloride,AALcAl,CC(=O)O,acetic acid,AAoChY,CC[n+]1ccn(C)c1.O=S(=O)([O-])O,1-ethyl-3-methylimidazolium hydrogen sulfate
TfwkE,298.15,0.4,100,2,1209.2,Christabel et al. (2020),Density,Liquid,AAasxG,C[N+](C)(C)CCO.[Cl-],choline chloride,AALcAl,CC(=O)O,acetic acid,AAoChY,CC[n+]1ccn(C)c1.O=S(=O)([O-])O,1-ethyl-3-methylimidazolium hydrogen sulfate
TfwkE,298.15,0.5,100,2,1233.3,Christabel et al. (2020),Density,Liquid,AAasxG,C[N+](C)(C)CCO.[Cl-],choline chloride,AALcAl,CC(=O)O,acetic acid,AAoChY,CC[n+]1ccn(C)c1.O=S(=O)([O-])O,1-ethyl-3-methylimidazolium hydrogen sulfate
TfwkE,298.15,0.6,100,2,1256.5,Christabel et al. (2020),Density,Liquid,AAasxG,C[N+](C)(C)CCO.[Cl-],choline chloride,AALcAl,CC(=O)O,acetic acid,AAoChY,CC[n+]1ccn(C)c1.O=S(=O)([O-])O,1-ethyl-3-methylimidazolium hydrogen sulfate
TfwkE,298.15,0.7,100,2,1285.7,Christabel et al. (2020),Density,Liquid,AAasxG,C[N+](C)(C)CCO.[Cl-],choline chloride,AALcAl,CC(=O)O,acetic acid,AAoChY,CC[n+]1ccn(C)c1.O=S(=O)([O-])O,1-ethyl-3-methylimidazolium hydrogen sulfate
TfwkE,298.15,0.8,100,2,1306.8,Christabel et al. (2020),Density,Liquid,AAasxG,C[N+](C)(C)CCO.[Cl-],choline chloride,AALcAl,CC(=O)O,acetic acid,AAoChY,CC[n+]1ccn(C)c1.O=S(=O)([O-])O,1-ethyl-3-methylimidazolium hydrogen sulfate
TfwkE,298.15,0.9,100,2,1331.9,Christabel et al. (2020),Density,Liquid,AAasxG,C[N+](C)(C)CCO.[Cl-],choline chloride,AALcAl,CC(=O)O,acetic acid,AAoChY,CC[n+]1ccn(C)c1.O=S(=O)([O-])O,1-ethyl-3-methylimidazolium hydrogen sulfate
TfwkE,298.15,1,100,2,1366,Christabel et al. (2020),Density,Liquid,AAasxG,C[N+](C)(C)CCO.[Cl-],choline chloride,AALcAl,CC(=O)O,acetic acid,AAoChY,CC[n+]1ccn(C)c1.O=S(=O)([O-])O,1-ethyl-3-methylimidazolium hydrogen sulfate
TfwkE,303.15,0,100,2,1088.5,Christabel et al. (2020),Density,Liquid,AAasxG,C[N+](C)(C)CCO.[Cl-],choline chloride,AALcAl,CC(=O)O,acetic acid,AAoChY,CC[n+]1ccn(C)c1.O=S(=O)([O-])O,1-ethyl-3-methylimidazolium hydrogen sulfate
TfwkE,303.15,0.1,100,2,1129.7,Christabel et al. (2020),Density,Liquid,AAasxG,C[N+](C)(C)CCO.[Cl-],choline chloride,AALcAl,CC(=O)O,acetic acid,AAoChY,CC[n+]1ccn(C)c1.O=S(=O)([O-])O,1-ethyl-3-methylimidazolium hydrogen sulfate
TfwkE,303.15,0.2,100,2,1152,Christabel et al. (2020),Density,Liquid,AAasxG,C[N+](C)(C)CCO.[Cl-],choline chloride,AALcAl,CC(=O)O,acetic acid,AAoChY,CC[n+]1ccn(C)c1.O=S(=O)([O-])O,1-ethyl-3-methylimidazolium hydrogen sulfate
TfwkE,303.15,0.3,100,2,1173.4,Christabel et al. (2020),Density,Liquid,AAasxG,C[N+](C)(C)CCO.[Cl-],choline chloride,AALcAl,CC(=O)O,acetic acid,AAoChY,CC[n+]1ccn(C)c1.O=S(=O)([O-])O,1-ethyl-3-methylimidazolium hydrogen sulfate
TfwkE,303.15,0.4,100,2,1205.6,Christabel et al. (2020),Density,Liquid,AAasxG,C[N+](C)(C)CCO.[Cl-],choline chloride,AALcAl,CC(=O)O,acetic acid,AAoChY,CC[n+]1ccn(C)c1.O=S(=O)([O-])O,1-ethyl-3-methylimidazolium hydrogen sulfate
TfwkE,303.15,0.5,100,2,1229.9,Christabel et al. (2020),Density,Liquid,AAasxG,C[N+](C)(C)CCO.[Cl-],choline chloride,AALcAl,CC(=O)O,acetic acid,AAoChY,CC[n+]1ccn(C)c1.O=S(=O)([O-])O,1-ethyl-3-methylimidazolium hydrogen sulfate
TfwkE,303.15,0.6,100,2,1253.1,Christabel et al. (2020),Density,Liquid,AAasxG,C[N+](C)(C)CCO.[Cl-],choline chloride,AALcAl,CC(=O)O,acetic acid,AAoChY,CC[n+]1ccn(C)c1.O=S(=O)([O-])O,1-ethyl-3-methylimidazolium hydrogen sulfate
TfwkE,303.15,0.7,100,2,1282.4,Christabel et al. (2020),Density,Liquid,AAasxG,C[N+](C)(C)CCO.[Cl-],choline chloride,AALcAl,CC(=O)O,acetic acid,AAoChY,CC[n+]1ccn(C)c1.O=S(=O)([O-])O,1-ethyl-3-methylimidazolium hydrogen sulfate
TfwkE,303.15,0.8,100,2,1303.6,Christabel et al. (2020),Density,Liquid,AAasxG,C[N+](C)(C)CCO.[Cl-],choline chloride,AALcAl,CC(=O)O,acetic acid,AAoChY,CC[n+]1ccn(C)c1.O=S(=O)([O-])O,1-ethyl-3-methylimidazolium hydrogen sulfate
TfwkE,303.15,0.9,100,2,1328.7,Christabel et al. (2020),Density,Liquid,AAasxG,C[N+](C)(C)CCO.[Cl-],choline chloride,AALcAl,CC(=O)O,acetic acid,AAoChY,CC[n+]1ccn(C)c1.O=S(=O)([O-])O,1-ethyl-3-methylimidazolium hydrogen sulfate
TfwkE,303.15,1,100,2,1362.9,Christabel et al. (2020),Density,Liquid,AAasxG,C[N+](C)(C)CCO.[Cl-],choline chloride,AALcAl,CC(=O)O,acetic acid,AAoChY,CC[n+]1ccn(C)c1.O=S(=O)([O-])O,1-ethyl-3-methylimidazolium hydrogen sulfate
TfwkE,308.15,0,100,2,1084.6,Christabel et al. (2020),Density,Liquid,AAasxG,C[N+](C)(C)CCO.[Cl-],choline chloride,AALcAl,CC(=O)O,acetic acid,AAoChY,CC[n+]1ccn(C)c1.O=S(=O)([O-])O,1-ethyl-3-methylimidazolium hydrogen sulfate
TfwkE,308.15,0.1,100,2,1126,Christabel et al. (2020),Density,Liquid,AAasxG,C[N+](C)(C)CCO.[Cl-],choline chloride,AALcAl,CC(=O)O,acetic acid,AAoChY,CC[n+]1ccn(C)c1.O=S(=O)([O-])O,1-ethyl-3-methylimidazolium hydrogen sulfate
TfwkE,308.15,0.2,100,2,1148.3,Christabel et al. (2020),Density,Liquid,AAasxG,C[N+](C)(C)CCO.[Cl-],choline chloride,AALcAl,CC(=O)O,acetic acid,AAoChY,CC[n+]1ccn(C)c1.O=S(=O)([O-])O,1-ethyl-3-methylimidazolium hydrogen sulfate
TfwkE,308.15,0.3,100,2,1169.8,Christabel et al. (2020),Density,Liquid,AAasxG,C[N+](C)(C)CCO.[Cl-],choline chloride,AALcAl,CC(=O)O,acetic acid,AAoChY,CC[n+]1ccn(C)c1.O=S(=O)([O-])O,1-ethyl-3-methylimidazolium hydrogen sulfate
TfwkE,308.15,0.4,100,2,1202.1,Christabel et al. (2020),Density,Liquid,AAasxG,C[N+](C)(C)CCO.[Cl-],choline chloride,AALcAl,CC(=O)O,acetic acid,AAoChY,CC[n+]1ccn(C)c1.O=S(=O)([O-])O,1-ethyl-3-methylimidazolium hydrogen sulfate
TfwkE,308.15,0.5,100,2,1226.4,Christabel et al. (2020),Density,Liquid,AAasxG,C[N+](C)(C)CCO.[Cl-],choline chloride,AALcAl,CC(=O)O,acetic acid,AAoChY,CC[n+]1ccn(C)c1.O=S(=O)([O-])O,1-ethyl-3-methylimidazolium hydrogen sulfate
TfwkE,308.15,0.6,100,2,1249.8,Christabel et al. (2020),Density,Liquid,AAasxG,C[N+](C)(C)CCO.[Cl-],choline chloride,AALcAl,CC(=O)O,acetic acid,AAoChY,CC[n+]1ccn(C)c1.O=S(=O)([O-])O,1-ethyl-3-methylimidazolium hydrogen sulfate
TfwkE,308.15,0.7,100,2,1279.1,Christabel et al. (2020),Density,Liquid,AAasxG,C[N+](C)(C)CCO.[Cl-],choline chloride,AALcAl,CC(=O)O,acetic acid,AAoChY,CC[n+]1ccn(C)c1.O=S(=O)([O-])O,1-ethyl-3-methylimidazolium hydrogen sulfate
TfwkE,308.15,0.8,100,2,1300.4,Christabel et al. (2020),Density,Liquid,AAasxG,C[N+](C)(C)CCO.[Cl-],choline chloride,AALcAl,CC(=O)O,acetic acid,AAoChY,CC[n+]1ccn(C)c1.O=S(=O)([O-])O,1-ethyl-3-methylimidazolium hydrogen sulfate
TfwkE,308.15,0.9,100,2,1325.6,Christabel et al. (2020),Density,Liquid,AAasxG,C[N+](C)(C)CCO.[Cl-],choline chloride,AALcAl,CC(=O)O,acetic acid,AAoChY,CC[n+]1ccn(C)c1.O=S(=O)([O-])O,1-ethyl-3-methylimidazolium hydrogen sulfate
TfwkE,308.15,1,100,2,1359.9,Christabel et al. (2020),Density,Liquid,AAasxG,C[N+](C)(C)CCO.[Cl-],choline chloride,AALcAl,CC(=O)O,acetic acid,AAoChY,CC[n+]1ccn(C)c1.O=S(=O)([O-])O,1-ethyl-3-methylimidazolium hydrogen sulfate
TfwkE,313.15,0,100,2,1080.7,Christabel et al. (2020),Density,Liquid,AAasxG,C[N+](C)(C)CCO.[Cl-],choline chloride,AALcAl,CC(=O)O,acetic acid,AAoChY,CC[n+]1ccn(C)c1.O=S(=O)([O-])O,1-ethyl-3-methylimidazolium hydrogen sulfate
TfwkE,313.15,0.1,100,2,1122.2,Christabel et al. (2020),Density,Liquid,AAasxG,C[N+](C)(C)CCO.[Cl-],choline chloride,AALcAl,CC(=O)O,acetic acid,AAoChY,CC[n+]1ccn(C)c1.O=S(=O)([O-])O,1-ethyl-3-methylimidazolium hydrogen sulfate
TfwkE,313.15,0.2,100,2,1144.6,Christabel et al. (2020),Density,Liquid,AAasxG,C[N+](C)(C)CCO.[Cl-],choline chloride,AALcAl,CC(=O)O,acetic acid,AAoChY,CC[n+]1ccn(C)c1.O=S(=O)([O-])O,1-ethyl-3-methylimidazolium hydrogen sulfate
TfwkE,313.15,0.3,100,2,1166.2,Christabel et al. (2020),Density,Liquid,AAasxG,C[N+](C)(C)CCO.[Cl-],choline chloride,AALcAl,CC(=O)O,acetic acid,AAoChY,CC[n+]1ccn(C)c1.O=S(=O)([O-])O,1-ethyl-3-methylimidazolium hydrogen sulfate
TfwkE,313.15,0.4,100,2,1198.6,Christabel et al. (2020),Density,Liquid,AAasxG,C[N+](C)(C)CCO.[Cl-],choline chloride,AALcAl,CC(=O)O,acetic acid,AAoChY,CC[n+]1ccn(C)c1.O=S(=O)([O-])O,1-ethyl-3-methylimidazolium hydrogen sulfate
TfwkE,313.15,0.5,100,2,1223,Christabel et al. (2020),Density,Liquid,AAasxG,C[N+](C)(C)CCO.[Cl-],choline chloride,AALcAl,CC(=O)O,acetic acid,AAoChY,CC[n+]1ccn(C)c1.O=S(=O)([O-])O,1-ethyl-3-methylimidazolium hydrogen sulfate
TfwkE,313.15,0.6,100,2,1246.4,Christabel et al. (2020),Density,Liquid,AAasxG,C[N+](C)(C)CCO.[Cl-],choline chloride,AALcAl,CC(=O)O,acetic acid,AAoChY,CC[n+]1ccn(C)c1.O=S(=O)([O-])O,1-ethyl-3-methylimidazolium hydrogen sulfate
TfwkE,313.15,0.7,100,2,1275.8,Christabel et al. (2020),Density,Liquid,AAasxG,C[N+](C)(C)CCO.[Cl-],choline chloride,AALcAl,CC(=O)O,acetic acid,AAoChY,CC[n+]1ccn(C)c1.O=S(=O)([O-])O,1-ethyl-3-methylimidazolium hydrogen sulfate
TfwkE,313.15,0.8,100,2,1297.2,Christabel et al. (2020),Density,Liquid,AAasxG,C[N+](C)(C)CCO.[Cl-],choline chloride,AALcAl,CC(=O)O,acetic acid,AAoChY,CC[n+]1ccn(C)c1.O=S(=O)([O-])O,1-ethyl-3-methylimidazolium hydrogen sulfate
TfwkE,313.15,0.9,100,2,1322.5,Christabel et al. (2020),Density,Liquid,AAasxG,C[N+](C)(C)CCO.[Cl-],choline chloride,AALcAl,CC(=O)O,acetic acid,AAoChY,CC[n+]1ccn(C)c1.O=S(=O)([O-])O,1-ethyl-3-methylimidazolium hydrogen sulfate
TfwkE,313.15,1,100,2,1356.7,Christabel et al. (2020),Density,Liquid,AAasxG,C[N+](C)(C)CCO.[Cl-],choline chloride,AALcAl,CC(=O)O,acetic acid,AAoChY,CC[n+]1ccn(C)c1.O=S(=O)([O-])O,1-ethyl-3-methylimidazolium hydrogen sulfate
TfwkE,318.15,0,100,2,1076.8,Christabel et al. (2020),Density,Liquid,AAasxG,C[N+](C)(C)CCO.[Cl-],choline chloride,AALcAl,CC(=O)O,acetic acid,AAoChY,CC[n+]1ccn(C)c1.O=S(=O)([O-])O,1-ethyl-3-methylimidazolium hydrogen sulfate
TfwkE,318.15,0.1,100,2,1118.4,Christabel et al. (2020),Density,Liquid,AAasxG,C[N+](C)(C)CCO.[Cl-],choline chloride,AALcAl,CC(=O)O,acetic acid,AAoChY,CC[n+]1ccn(C)c1.O=S(=O)([O-])O,1-ethyl-3-methylimidazolium hydrogen sulfate
TfwkE,318.15,0.2,100,2,1140.9,Christabel et al. (2020),Density,Liquid,AAasxG,C[N+](C)(C)CCO.[Cl-],choline chloride,AALcAl,CC(=O)O,acetic acid,AAoChY,CC[n+]1ccn(C)c1.O=S(=O)([O-])O,1-ethyl-3-methylimidazolium hydrogen sulfate
TfwkE,318.15,0.3,100,2,1162.6,Christabel et al. (2020),Density,Liquid,AAasxG,C[N+](C)(C)CCO.[Cl-],choline chloride,AALcAl,CC(=O)O,acetic acid,AAoChY,CC[n+]1ccn(C)c1.O=S(=O)([O-])O,1-ethyl-3-methylimidazolium hydrogen sulfate
TfwkE,318.15,0.4,100,2,1195.1,Christabel et al. (2020),Density,Liquid,AAasxG,C[N+](C)(C)CCO.[Cl-],choline chloride,AALcAl,CC(=O)O,acetic acid,AAoChY,CC[n+]1ccn(C)c1.O=S(=O)([O-])O,1-ethyl-3-methylimidazolium hydrogen sulfate
TfwkE,318.15,0.5,100,2,1219.5,Christabel et al. (2020),Density,Liquid,AAasxG,C[N+](C)(C)CCO.[Cl-],choline chloride,AALcAl,CC(=O)O,acetic acid,AAoChY,CC[n+]1ccn(C)c1.O=S(=O)([O-])O,1-ethyl-3-methylimidazolium hydrogen sulfate
TfwkE,318.15,0.6,100,2,1243,Christabel et al. (2020),Density,Liquid,AAasxG,C[N+](C)(C)CCO.[Cl-],choline chloride,AALcAl,CC(=O)O,acetic acid,AAoChY,CC[n+]1ccn(C)c1.O=S(=O)([O-])O,1-ethyl-3-methylimidazolium hydrogen sulfate
TfwkE,318.15,0.7,100,2,1272.5,Christabel et al. (2020),Density,Liquid,AAasxG,C[N+](C)(C)CCO.[Cl-],choline chloride,AALcAl,CC(=O)O,acetic acid,AAoChY,CC[n+]1ccn(C)c1.O=S(=O)([O-])O,1-ethyl-3-methylimidazolium hydrogen sulfate
TfwkE,318.15,0.8,100,2,1294,Christabel et al. (2020),Density,Liquid,AAasxG,C[N+](C)(C)CCO.[Cl-],choline chloride,AALcAl,CC(=O)O,acetic acid,AAoChY,CC[n+]1ccn(C)c1.O=S(=O)([O-])O,1-ethyl-3-methylimidazolium hydrogen sulfate
TfwkE,318.15,0.9,100,2,1319.4,Christabel et al. (2020),Density,Liquid,AAasxG,C[N+](C)(C)CCO.[Cl-],choline chloride,AALcAl,CC(=O)O,acetic acid,AAoChY,CC[n+]1ccn(C)c1.O=S(=O)([O-])O,1-ethyl-3-methylimidazolium hydrogen sulfate
TfwkE,318.15,1,100,2,1353.7,Christabel et al. (2020),Density,Liquid,AAasxG,C[N+](C)(C)CCO.[Cl-],choline chloride,AALcAl,CC(=O)O,acetic acid,AAoChY,CC[n+]1ccn(C)c1.O=S(=O)([O-])O,1-ethyl-3-methylimidazolium hydrogen sulfate
TfwkE,323.15,0,100,2,1072.9,Christabel et al. (2020),Density,Liquid,AAasxG,C[N+](C)(C)CCO.[Cl-],choline chloride,AALcAl,CC(=O)O,acetic acid,AAoChY,CC[n+]1ccn(C)c1.O=S(=O)([O-])O,1-ethyl-3-methylimidazolium hydrogen sulfate
TfwkE,323.15,0.1,100,2,1114.7,Christabel et al. (2020),Density,Liquid,AAasxG,C[N+](C)(C)CCO.[Cl-],choline chloride,AALcAl,CC(=O)O,acetic acid,AAoChY,CC[n+]1ccn(C)c1.O=S(=O)([O-])O,1-ethyl-3-methylimidazolium hydrogen sulfate
TfwkE,323.15,0.2,100,2,1137.3,Christabel et al. (2020),Density,Liquid,AAasxG,C[N+](C)(C)CCO.[Cl-],choline chloride,AALcAl,CC(=O)O,acetic acid,AAoChY,CC[n+]1ccn(C)c1.O=S(=O)([O-])O,1-ethyl-3-methylimidazolium hydrogen sulfate
TfwkE,323.15,0.3,100,2,1159,Christabel et al. (2020),Density,Liquid,AAasxG,C[N+](C)(C)CCO.[Cl-],choline chloride,AALcAl,CC(=O)O,acetic acid,AAoChY,CC[n+]1ccn(C)c1.O=S(=O)([O-])O,1-ethyl-3-methylimidazolium hydrogen sulfate
TfwkE,323.15,0.4,100,2,1191.6,Christabel et al. (2020),Density,Liquid,AAasxG,C[N+](C)(C)CCO.[Cl-],choline chloride,AALcAl,CC(=O)O,acetic acid,AAoChY,CC[n+]1ccn(C)c1.O=S(=O)([O-])O,1-ethyl-3-methylimidazolium hydrogen sulfate
TfwkE,323.15,0.5,100,2,1216.1,Christabel et al. (2020),Density,Liquid,AAasxG,C[N+](C)(C)CCO.[Cl-],choline chloride,AALcAl,CC(=O)O,acetic acid,AAoChY,CC[n+]1ccn(C)c1.O=S(=O)([O-])O,1-ethyl-3-methylimidazolium hydrogen sulfate
TfwkE,323.15,0.6,100,2,1239.7,Christabel et al. (2020),Density,Liquid,AAasxG,C[N+](C)(C)CCO.[Cl-],choline chloride,AALcAl,CC(=O)O,acetic acid,AAoChY,CC[n+]1ccn(C)c1.O=S(=O)([O-])O,1-ethyl-3-methylimidazolium hydrogen sulfate
TfwkE,323.15,0.7,100,2,1269.3,Christabel et al. (2020),Density,Liquid,AAasxG,C[N+](C)(C)CCO.[Cl-],choline chloride,AALcAl,CC(=O)O,acetic acid,AAoChY,CC[n+]1ccn(C)c1.O=S(=O)([O-])O,1-ethyl-3-methylimidazolium hydrogen sulfate
TfwkE,323.15,0.8,100,2,1290.8,Christabel et al. (2020),Density,Liquid,AAasxG,C[N+](C)(C)CCO.[Cl-],choline chloride,AALcAl,CC(=O)O,acetic acid,AAoChY,CC[n+]1ccn(C)c1.O=S(=O)([O-])O,1-ethyl-3-methylimidazolium hydrogen sulfate
TfwkE,323.15,0.9,100,2,1316.2,Christabel et al. (2020),Density,Liquid,AAasxG,C[N+](C)(C)CCO.[Cl-],choline chloride,AALcAl,CC(=O)O,acetic acid,AAoChY,CC[n+]1ccn(C)c1.O=S(=O)([O-])O,1-ethyl-3-methylimidazolium hydrogen sulfate
TfwkE,323.15,1,100,2,1350.8,Christabel et al. (2020),Density,Liquid,AAasxG,C[N+](C)(C)CCO.[Cl-],choline chloride,AALcAl,CC(=O)O,acetic acid,AAoChY,CC[n+]1ccn(C)c1.O=S(=O)([O-])O,1-ethyl-3-methylimidazolium hydrogen sulfate
TfwkE,328.15,0,100,2,1069,Christabel et al. (2020),Density,Liquid,AAasxG,C[N+](C)(C)CCO.[Cl-],choline chloride,AALcAl,CC(=O)O,acetic acid,AAoChY,CC[n+]1ccn(C)c1.O=S(=O)([O-])O,1-ethyl-3-methylimidazolium hydrogen sulfate
TfwkE,328.15,0.1,100,2,1110.9,Christabel et al. (2020),Density,Liquid,AAasxG,C[N+](C)(C)CCO.[Cl-],choline chloride,AALcAl,CC(=O)O,acetic acid,AAoChY,CC[n+]1ccn(C)c1.O=S(=O)([O-])O,1-ethyl-3-methylimidazolium hydrogen sulfate
TfwkE,328.15,0.2,100,2,1133.6,Christabel et al. (2020),Density,Liquid,AAasxG,C[N+](C)(C)CCO.[Cl-],choline chloride,AALcAl,CC(=O)O,acetic acid,AAoChY,CC[n+]1ccn(C)c1.O=S(=O)([O-])O,1-ethyl-3-methylimidazolium hydrogen sulfate
TfwkE,328.15,0.3,100,2,1155.4,Christabel et al. (2020),Density,Liquid,AAasxG,C[N+](C)(C)CCO.[Cl-],choline chloride,AALcAl,CC(=O)O,acetic acid,AAoChY,CC[n+]1ccn(C)c1.O=S(=O)([O-])O,1-ethyl-3-methylimidazolium hydrogen sulfate
TfwkE,328.15,0.4,100,2,1188.1,Christabel et al. (2020),Density,Liquid,AAasxG,C[N+](C)(C)CCO.[Cl-],choline chloride,AALcAl,CC(=O)O,acetic acid,AAoChY,CC[n+]1ccn(C)c1.O=S(=O)([O-])O,1-ethyl-3-methylimidazolium hydrogen sulfate
TfwkE,328.15,0.5,100,2,1212.7,Christabel et al. (2020),Density,Liquid,AAasxG,C[N+](C)(C)CCO.[Cl-],choline chloride,AALcAl,CC(=O)O,acetic acid,AAoChY,CC[n+]1ccn(C)c1.O=S(=O)([O-])O,1-ethyl-3-methylimidazolium hydrogen sulfate
TfwkE,328.15,0.6,100,2,1236.4,Christabel et al. (2020),Density,Liquid,AAasxG,C[N+](C)(C)CCO.[Cl-],choline chloride,AALcAl,CC(=O)O,acetic acid,AAoChY,CC[n+]1ccn(C)c1.O=S(=O)([O-])O,1-ethyl-3-methylimidazolium hydrogen sulfate
TfwkE,328.15,0.7,100,2,1266,Christabel et al. (2020),Density,Liquid,AAasxG,C[N+](C)(C)CCO.[Cl-],choline chloride,AALcAl,CC(=O)O,acetic acid,AAoChY,CC[n+]1ccn(C)c1.O=S(=O)([O-])O,1-ethyl-3-methylimidazolium hydrogen sulfate
TfwkE,328.15,0.8,100,2,1287.6,Christabel et al. (2020),Density,Liquid,AAasxG,C[N+](C)(C)CCO.[Cl-],choline chloride,AALcAl,CC(=O)O,acetic acid,AAoChY,CC[n+]1ccn(C)c1.O=S(=O)([O-])O,1-ethyl-3-methylimidazolium hydrogen sulfate
TfwkE,328.15,0.9,100,2,1313.1,Christabel et al. (2020),Density,Liquid,AAasxG,C[N+](C)(C)CCO.[Cl-],choline chloride,AALcAl,CC(=O)O,acetic acid,AAoChY,CC[n+]1ccn(C)c1.O=S(=O)([O-])O,1-ethyl-3-methylimidazolium hydrogen sulfate