setid,"Temperature, K",Mole fraction of 1-butyl-3-methylimidazolium acetate,"Pressure, kPa",Solvent: Mole ratio of acetic acid to other component of binary solvent,"Specific density, kg/m<SUP>3</SUP>",reference,propertiy,phases,compound id 1,smile 1,compound name 1,compound id 2,smile 2,compound name 2,compound id 3,smile 3,compound name 3
ZEUSB,293.15,0,100,2,1096.4,Christabel et al. (2020),Density,Liquid,AAasxG,C[N+](C)(C)CCO.[Cl-],choline chloride,AALcAl,CC(=O)O,acetic acid,AAmGQS,CC(=O)[O-].CCCC[n+]1ccn(C)c1,1-butyl-3-methylimidazolium acetate
ZEUSB,293.15,0.1,100,2,1096.9,Christabel et al. (2020),Density,Liquid,AAasxG,C[N+](C)(C)CCO.[Cl-],choline chloride,AALcAl,CC(=O)O,acetic acid,AAmGQS,CC(=O)[O-].CCCC[n+]1ccn(C)c1,1-butyl-3-methylimidazolium acetate
ZEUSB,293.15,0.2,100,2,1094.2,Christabel et al. (2020),Density,Liquid,AAasxG,C[N+](C)(C)CCO.[Cl-],choline chloride,AALcAl,CC(=O)O,acetic acid,AAmGQS,CC(=O)[O-].CCCC[n+]1ccn(C)c1,1-butyl-3-methylimidazolium acetate
ZEUSB,293.15,0.3,100,2,1089.9,Christabel et al. (2020),Density,Liquid,AAasxG,C[N+](C)(C)CCO.[Cl-],choline chloride,AALcAl,CC(=O)O,acetic acid,AAmGQS,CC(=O)[O-].CCCC[n+]1ccn(C)c1,1-butyl-3-methylimidazolium acetate
ZEUSB,293.15,0.4,100,2,1086.7,Christabel et al. (2020),Density,Liquid,AAasxG,C[N+](C)(C)CCO.[Cl-],choline chloride,AALcAl,CC(=O)O,acetic acid,AAmGQS,CC(=O)[O-].CCCC[n+]1ccn(C)c1,1-butyl-3-methylimidazolium acetate
ZEUSB,293.15,0.5,100,2,1081.6,Christabel et al. (2020),Density,Liquid,AAasxG,C[N+](C)(C)CCO.[Cl-],choline chloride,AALcAl,CC(=O)O,acetic acid,AAmGQS,CC(=O)[O-].CCCC[n+]1ccn(C)c1,1-butyl-3-methylimidazolium acetate
ZEUSB,293.15,0.6,100,2,1082.4,Christabel et al. (2020),Density,Liquid,AAasxG,C[N+](C)(C)CCO.[Cl-],choline chloride,AALcAl,CC(=O)O,acetic acid,AAmGQS,CC(=O)[O-].CCCC[n+]1ccn(C)c1,1-butyl-3-methylimidazolium acetate
ZEUSB,293.15,0.7,100,2,1074.9,Christabel et al. (2020),Density,Liquid,AAasxG,C[N+](C)(C)CCO.[Cl-],choline chloride,AALcAl,CC(=O)O,acetic acid,AAmGQS,CC(=O)[O-].CCCC[n+]1ccn(C)c1,1-butyl-3-methylimidazolium acetate
ZEUSB,293.15,0.8,100,2,1069,Christabel et al. (2020),Density,Liquid,AAasxG,C[N+](C)(C)CCO.[Cl-],choline chloride,AALcAl,CC(=O)O,acetic acid,AAmGQS,CC(=O)[O-].CCCC[n+]1ccn(C)c1,1-butyl-3-methylimidazolium acetate
ZEUSB,293.15,0.9,100,2,1064.1,Christabel et al. (2020),Density,Liquid,AAasxG,C[N+](C)(C)CCO.[Cl-],choline chloride,AALcAl,CC(=O)O,acetic acid,AAmGQS,CC(=O)[O-].CCCC[n+]1ccn(C)c1,1-butyl-3-methylimidazolium acetate
ZEUSB,293.15,1,100,2,1055.5,Christabel et al. (2020),Density,Liquid,AAasxG,C[N+](C)(C)CCO.[Cl-],choline chloride,AALcAl,CC(=O)O,acetic acid,AAmGQS,CC(=O)[O-].CCCC[n+]1ccn(C)c1,1-butyl-3-methylimidazolium acetate
ZEUSB,298.15,0,100,2,1092.5,Christabel et al. (2020),Density,Liquid,AAasxG,C[N+](C)(C)CCO.[Cl-],choline chloride,AALcAl,CC(=O)O,acetic acid,AAmGQS,CC(=O)[O-].CCCC[n+]1ccn(C)c1,1-butyl-3-methylimidazolium acetate
ZEUSB,298.15,0.1,100,2,1093.2,Christabel et al. (2020),Density,Liquid,AAasxG,C[N+](C)(C)CCO.[Cl-],choline chloride,AALcAl,CC(=O)O,acetic acid,AAmGQS,CC(=O)[O-].CCCC[n+]1ccn(C)c1,1-butyl-3-methylimidazolium acetate
ZEUSB,298.15,0.2,100,2,1090.5,Christabel et al. (2020),Density,Liquid,AAasxG,C[N+](C)(C)CCO.[Cl-],choline chloride,AALcAl,CC(=O)O,acetic acid,AAmGQS,CC(=O)[O-].CCCC[n+]1ccn(C)c1,1-butyl-3-methylimidazolium acetate
ZEUSB,298.15,0.3,100,2,1086.4,Christabel et al. (2020),Density,Liquid,AAasxG,C[N+](C)(C)CCO.[Cl-],choline chloride,AALcAl,CC(=O)O,acetic acid,AAmGQS,CC(=O)[O-].CCCC[n+]1ccn(C)c1,1-butyl-3-methylimidazolium acetate
ZEUSB,298.15,0.4,100,2,1083.2,Christabel et al. (2020),Density,Liquid,AAasxG,C[N+](C)(C)CCO.[Cl-],choline chloride,AALcAl,CC(=O)O,acetic acid,AAmGQS,CC(=O)[O-].CCCC[n+]1ccn(C)c1,1-butyl-3-methylimidazolium acetate
ZEUSB,298.15,0.5,100,2,1078.2,Christabel et al. (2020),Density,Liquid,AAasxG,C[N+](C)(C)CCO.[Cl-],choline chloride,AALcAl,CC(=O)O,acetic acid,AAmGQS,CC(=O)[O-].CCCC[n+]1ccn(C)c1,1-butyl-3-methylimidazolium acetate
ZEUSB,298.15,0.6,100,2,1079,Christabel et al. (2020),Density,Liquid,AAasxG,C[N+](C)(C)CCO.[Cl-],choline chloride,AALcAl,CC(=O)O,acetic acid,AAmGQS,CC(=O)[O-].CCCC[n+]1ccn(C)c1,1-butyl-3-methylimidazolium acetate
ZEUSB,298.15,0.7,100,2,1071.6,Christabel et al. (2020),Density,Liquid,AAasxG,C[N+](C)(C)CCO.[Cl-],choline chloride,AALcAl,CC(=O)O,acetic acid,AAmGQS,CC(=O)[O-].CCCC[n+]1ccn(C)c1,1-butyl-3-methylimidazolium acetate
ZEUSB,298.15,0.8,100,2,1065.8,Christabel et al. (2020),Density,Liquid,AAasxG,C[N+](C)(C)CCO.[Cl-],choline chloride,AALcAl,CC(=O)O,acetic acid,AAmGQS,CC(=O)[O-].CCCC[n+]1ccn(C)c1,1-butyl-3-methylimidazolium acetate
ZEUSB,298.15,0.9,100,2,1061,Christabel et al. (2020),Density,Liquid,AAasxG,C[N+](C)(C)CCO.[Cl-],choline chloride,AALcAl,CC(=O)O,acetic acid,AAmGQS,CC(=O)[O-].CCCC[n+]1ccn(C)c1,1-butyl-3-methylimidazolium acetate
ZEUSB,298.15,1,100,2,1052.5,Christabel et al. (2020),Density,Liquid,AAasxG,C[N+](C)(C)CCO.[Cl-],choline chloride,AALcAl,CC(=O)O,acetic acid,AAmGQS,CC(=O)[O-].CCCC[n+]1ccn(C)c1,1-butyl-3-methylimidazolium acetate
ZEUSB,303.15,0,100,2,1088.5,Christabel et al. (2020),Density,Liquid,AAasxG,C[N+](C)(C)CCO.[Cl-],choline chloride,AALcAl,CC(=O)O,acetic acid,AAmGQS,CC(=O)[O-].CCCC[n+]1ccn(C)c1,1-butyl-3-methylimidazolium acetate
ZEUSB,303.15,0.1,100,2,1089.4,Christabel et al. (2020),Density,Liquid,AAasxG,C[N+](C)(C)CCO.[Cl-],choline chloride,AALcAl,CC(=O)O,acetic acid,AAmGQS,CC(=O)[O-].CCCC[n+]1ccn(C)c1,1-butyl-3-methylimidazolium acetate
ZEUSB,303.15,0.2,100,2,1086.8,Christabel et al. (2020),Density,Liquid,AAasxG,C[N+](C)(C)CCO.[Cl-],choline chloride,AALcAl,CC(=O)O,acetic acid,AAmGQS,CC(=O)[O-].CCCC[n+]1ccn(C)c1,1-butyl-3-methylimidazolium acetate
ZEUSB,303.15,0.3,100,2,1082.8,Christabel et al. (2020),Density,Liquid,AAasxG,C[N+](C)(C)CCO.[Cl-],choline chloride,AALcAl,CC(=O)O,acetic acid,AAmGQS,CC(=O)[O-].CCCC[n+]1ccn(C)c1,1-butyl-3-methylimidazolium acetate
ZEUSB,303.15,0.4,100,2,1079.7,Christabel et al. (2020),Density,Liquid,AAasxG,C[N+](C)(C)CCO.[Cl-],choline chloride,AALcAl,CC(=O)O,acetic acid,AAmGQS,CC(=O)[O-].CCCC[n+]1ccn(C)c1,1-butyl-3-methylimidazolium acetate
ZEUSB,303.15,0.5,100,2,1074.7,Christabel et al. (2020),Density,Liquid,AAasxG,C[N+](C)(C)CCO.[Cl-],choline chloride,AALcAl,CC(=O)O,acetic acid,AAmGQS,CC(=O)[O-].CCCC[n+]1ccn(C)c1,1-butyl-3-methylimidazolium acetate
ZEUSB,303.15,0.6,100,2,1075.5,Christabel et al. (2020),Density,Liquid,AAasxG,C[N+](C)(C)CCO.[Cl-],choline chloride,AALcAl,CC(=O)O,acetic acid,AAmGQS,CC(=O)[O-].CCCC[n+]1ccn(C)c1,1-butyl-3-methylimidazolium acetate
ZEUSB,303.15,0.7,100,2,1068.3,Christabel et al. (2020),Density,Liquid,AAasxG,C[N+](C)(C)CCO.[Cl-],choline chloride,AALcAl,CC(=O)O,acetic acid,AAmGQS,CC(=O)[O-].CCCC[n+]1ccn(C)c1,1-butyl-3-methylimidazolium acetate
ZEUSB,303.15,0.8,100,2,1062.6,Christabel et al. (2020),Density,Liquid,AAasxG,C[N+](C)(C)CCO.[Cl-],choline chloride,AALcAl,CC(=O)O,acetic acid,AAmGQS,CC(=O)[O-].CCCC[n+]1ccn(C)c1,1-butyl-3-methylimidazolium acetate
ZEUSB,303.15,0.9,100,2,1057.9,Christabel et al. (2020),Density,Liquid,AAasxG,C[N+](C)(C)CCO.[Cl-],choline chloride,AALcAl,CC(=O)O,acetic acid,AAmGQS,CC(=O)[O-].CCCC[n+]1ccn(C)c1,1-butyl-3-methylimidazolium acetate
ZEUSB,303.15,1,100,2,1049.5,Christabel et al. (2020),Density,Liquid,AAasxG,C[N+](C)(C)CCO.[Cl-],choline chloride,AALcAl,CC(=O)O,acetic acid,AAmGQS,CC(=O)[O-].CCCC[n+]1ccn(C)c1,1-butyl-3-methylimidazolium acetate
ZEUSB,308.15,0,100,2,1084.6,Christabel et al. (2020),Density,Liquid,AAasxG,C[N+](C)(C)CCO.[Cl-],choline chloride,AALcAl,CC(=O)O,acetic acid,AAmGQS,CC(=O)[O-].CCCC[n+]1ccn(C)c1,1-butyl-3-methylimidazolium acetate
ZEUSB,308.15,0.1,100,2,1085.6,Christabel et al. (2020),Density,Liquid,AAasxG,C[N+](C)(C)CCO.[Cl-],choline chloride,AALcAl,CC(=O)O,acetic acid,AAmGQS,CC(=O)[O-].CCCC[n+]1ccn(C)c1,1-butyl-3-methylimidazolium acetate
ZEUSB,308.15,0.2,100,2,1083.1,Christabel et al. (2020),Density,Liquid,AAasxG,C[N+](C)(C)CCO.[Cl-],choline chloride,AALcAl,CC(=O)O,acetic acid,AAmGQS,CC(=O)[O-].CCCC[n+]1ccn(C)c1,1-butyl-3-methylimidazolium acetate
ZEUSB,308.15,0.3,100,2,1079.2,Christabel et al. (2020),Density,Liquid,AAasxG,C[N+](C)(C)CCO.[Cl-],choline chloride,AALcAl,CC(=O)O,acetic acid,AAmGQS,CC(=O)[O-].CCCC[n+]1ccn(C)c1,1-butyl-3-methylimidazolium acetate
ZEUSB,308.15,0.4,100,2,1076.1,Christabel et al. (2020),Density,Liquid,AAasxG,C[N+](C)(C)CCO.[Cl-],choline chloride,AALcAl,CC(=O)O,acetic acid,AAmGQS,CC(=O)[O-].CCCC[n+]1ccn(C)c1,1-butyl-3-methylimidazolium acetate
ZEUSB,308.15,0.5,100,2,1071.3,Christabel et al. (2020),Density,Liquid,AAasxG,C[N+](C)(C)CCO.[Cl-],choline chloride,AALcAl,CC(=O)O,acetic acid,AAmGQS,CC(=O)[O-].CCCC[n+]1ccn(C)c1,1-butyl-3-methylimidazolium acetate
ZEUSB,308.15,0.6,100,2,1072.1,Christabel et al. (2020),Density,Liquid,AAasxG,C[N+](C)(C)CCO.[Cl-],choline chloride,AALcAl,CC(=O)O,acetic acid,AAmGQS,CC(=O)[O-].CCCC[n+]1ccn(C)c1,1-butyl-3-methylimidazolium acetate
ZEUSB,308.15,0.7,100,2,1065,Christabel et al. (2020),Density,Liquid,AAasxG,C[N+](C)(C)CCO.[Cl-],choline chloride,AALcAl,CC(=O)O,acetic acid,AAmGQS,CC(=O)[O-].CCCC[n+]1ccn(C)c1,1-butyl-3-methylimidazolium acetate
ZEUSB,308.15,0.8,100,2,1059.4,Christabel et al. (2020),Density,Liquid,AAasxG,C[N+](C)(C)CCO.[Cl-],choline chloride,AALcAl,CC(=O)O,acetic acid,AAmGQS,CC(=O)[O-].CCCC[n+]1ccn(C)c1,1-butyl-3-methylimidazolium acetate
ZEUSB,308.15,0.9,100,2,1054.8,Christabel et al. (2020),Density,Liquid,AAasxG,C[N+](C)(C)CCO.[Cl-],choline chloride,AALcAl,CC(=O)O,acetic acid,AAmGQS,CC(=O)[O-].CCCC[n+]1ccn(C)c1,1-butyl-3-methylimidazolium acetate
ZEUSB,308.15,1,100,2,1046.5,Christabel et al. (2020),Density,Liquid,AAasxG,C[N+](C)(C)CCO.[Cl-],choline chloride,AALcAl,CC(=O)O,acetic acid,AAmGQS,CC(=O)[O-].CCCC[n+]1ccn(C)c1,1-butyl-3-methylimidazolium acetate
ZEUSB,313.15,0,100,2,1080.7,Christabel et al. (2020),Density,Liquid,AAasxG,C[N+](C)(C)CCO.[Cl-],choline chloride,AALcAl,CC(=O)O,acetic acid,AAmGQS,CC(=O)[O-].CCCC[n+]1ccn(C)c1,1-butyl-3-methylimidazolium acetate
ZEUSB,313.15,0.1,100,2,1081.9,Christabel et al. (2020),Density,Liquid,AAasxG,C[N+](C)(C)CCO.[Cl-],choline chloride,AALcAl,CC(=O)O,acetic acid,AAmGQS,CC(=O)[O-].CCCC[n+]1ccn(C)c1,1-butyl-3-methylimidazolium acetate
ZEUSB,313.15,0.2,100,2,1079.4,Christabel et al. (2020),Density,Liquid,AAasxG,C[N+](C)(C)CCO.[Cl-],choline chloride,AALcAl,CC(=O)O,acetic acid,AAmGQS,CC(=O)[O-].CCCC[n+]1ccn(C)c1,1-butyl-3-methylimidazolium acetate
ZEUSB,313.15,0.3,100,2,1075.6,Christabel et al. (2020),Density,Liquid,AAasxG,C[N+](C)(C)CCO.[Cl-],choline chloride,AALcAl,CC(=O)O,acetic acid,AAmGQS,CC(=O)[O-].CCCC[n+]1ccn(C)c1,1-butyl-3-methylimidazolium acetate
ZEUSB,313.15,0.4,100,2,1072.6,Christabel et al. (2020),Density,Liquid,AAasxG,C[N+](C)(C)CCO.[Cl-],choline chloride,AALcAl,CC(=O)O,acetic acid,AAmGQS,CC(=O)[O-].CCCC[n+]1ccn(C)c1,1-butyl-3-methylimidazolium acetate
ZEUSB,313.15,0.5,100,2,1067.9,Christabel et al. (2020),Density,Liquid,AAasxG,C[N+](C)(C)CCO.[Cl-],choline chloride,AALcAl,CC(=O)O,acetic acid,AAmGQS,CC(=O)[O-].CCCC[n+]1ccn(C)c1,1-butyl-3-methylimidazolium acetate
ZEUSB,313.15,0.6,100,2,1068.7,Christabel et al. (2020),Density,Liquid,AAasxG,C[N+](C)(C)CCO.[Cl-],choline chloride,AALcAl,CC(=O)O,acetic acid,AAmGQS,CC(=O)[O-].CCCC[n+]1ccn(C)c1,1-butyl-3-methylimidazolium acetate
ZEUSB,313.15,0.7,100,2,1061.8,Christabel et al. (2020),Density,Liquid,AAasxG,C[N+](C)(C)CCO.[Cl-],choline chloride,AALcAl,CC(=O)O,acetic acid,AAmGQS,CC(=O)[O-].CCCC[n+]1ccn(C)c1,1-butyl-3-methylimidazolium acetate
ZEUSB,313.15,0.8,100,2,1056.2,Christabel et al. (2020),Density,Liquid,AAasxG,C[N+](C)(C)CCO.[Cl-],choline chloride,AALcAl,CC(=O)O,acetic acid,AAmGQS,CC(=O)[O-].CCCC[n+]1ccn(C)c1,1-butyl-3-methylimidazolium acetate
ZEUSB,313.15,0.9,100,2,1051.7,Christabel et al. (2020),Density,Liquid,AAasxG,C[N+](C)(C)CCO.[Cl-],choline chloride,AALcAl,CC(=O)O,acetic acid,AAmGQS,CC(=O)[O-].CCCC[n+]1ccn(C)c1,1-butyl-3-methylimidazolium acetate
ZEUSB,313.15,1,100,2,1043.5,Christabel et al. (2020),Density,Liquid,AAasxG,C[N+](C)(C)CCO.[Cl-],choline chloride,AALcAl,CC(=O)O,acetic acid,AAmGQS,CC(=O)[O-].CCCC[n+]1ccn(C)c1,1-butyl-3-methylimidazolium acetate
ZEUSB,318.15,0,100,2,1076.8,Christabel et al. (2020),Density,Liquid,AAasxG,C[N+](C)(C)CCO.[Cl-],choline chloride,AALcAl,CC(=O)O,acetic acid,AAmGQS,CC(=O)[O-].CCCC[n+]1ccn(C)c1,1-butyl-3-methylimidazolium acetate
ZEUSB,318.15,0.1,100,2,1078.1,Christabel et al. (2020),Density,Liquid,AAasxG,C[N+](C)(C)CCO.[Cl-],choline chloride,AALcAl,CC(=O)O,acetic acid,AAmGQS,CC(=O)[O-].CCCC[n+]1ccn(C)c1,1-butyl-3-methylimidazolium acetate
ZEUSB,318.15,0.2,100,2,1075.8,Christabel et al. (2020),Density,Liquid,AAasxG,C[N+](C)(C)CCO.[Cl-],choline chloride,AALcAl,CC(=O)O,acetic acid,AAmGQS,CC(=O)[O-].CCCC[n+]1ccn(C)c1,1-butyl-3-methylimidazolium acetate
ZEUSB,318.15,0.3,100,2,1072,Christabel et al. (2020),Density,Liquid,AAasxG,C[N+](C)(C)CCO.[Cl-],choline chloride,AALcAl,CC(=O)O,acetic acid,AAmGQS,CC(=O)[O-].CCCC[n+]1ccn(C)c1,1-butyl-3-methylimidazolium acetate
ZEUSB,318.15,0.4,100,2,1069.1,Christabel et al. (2020),Density,Liquid,AAasxG,C[N+](C)(C)CCO.[Cl-],choline chloride,AALcAl,CC(=O)O,acetic acid,AAmGQS,CC(=O)[O-].CCCC[n+]1ccn(C)c1,1-butyl-3-methylimidazolium acetate
ZEUSB,318.15,0.5,100,2,1064.6,Christabel et al. (2020),Density,Liquid,AAasxG,C[N+](C)(C)CCO.[Cl-],choline chloride,AALcAl,CC(=O)O,acetic acid,AAmGQS,CC(=O)[O-].CCCC[n+]1ccn(C)c1,1-butyl-3-methylimidazolium acetate
ZEUSB,318.15,0.6,100,2,1065.3,Christabel et al. (2020),Density,Liquid,AAasxG,C[N+](C)(C)CCO.[Cl-],choline chloride,AALcAl,CC(=O)O,acetic acid,AAmGQS,CC(=O)[O-].CCCC[n+]1ccn(C)c1,1-butyl-3-methylimidazolium acetate
ZEUSB,318.15,0.7,100,2,1058.5,Christabel et al. (2020),Density,Liquid,AAasxG,C[N+](C)(C)CCO.[Cl-],choline chloride,AALcAl,CC(=O)O,acetic acid,AAmGQS,CC(=O)[O-].CCCC[n+]1ccn(C)c1,1-butyl-3-methylimidazolium acetate
ZEUSB,318.15,0.8,100,2,1053.1,Christabel et al. (2020),Density,Liquid,AAasxG,C[N+](C)(C)CCO.[Cl-],choline chloride,AALcAl,CC(=O)O,acetic acid,AAmGQS,CC(=O)[O-].CCCC[n+]1ccn(C)c1,1-butyl-3-methylimidazolium acetate
ZEUSB,318.15,0.9,100,2,1048.6,Christabel et al. (2020),Density,Liquid,AAasxG,C[N+](C)(C)CCO.[Cl-],choline chloride,AALcAl,CC(=O)O,acetic acid,AAmGQS,CC(=O)[O-].CCCC[n+]1ccn(C)c1,1-butyl-3-methylimidazolium acetate
ZEUSB,318.15,1,100,2,1040.5,Christabel et al. (2020),Density,Liquid,AAasxG,C[N+](C)(C)CCO.[Cl-],choline chloride,AALcAl,CC(=O)O,acetic acid,AAmGQS,CC(=O)[O-].CCCC[n+]1ccn(C)c1,1-butyl-3-methylimidazolium acetate
ZEUSB,323.15,0,100,2,1072.9,Christabel et al. (2020),Density,Liquid,AAasxG,C[N+](C)(C)CCO.[Cl-],choline chloride,AALcAl,CC(=O)O,acetic acid,AAmGQS,CC(=O)[O-].CCCC[n+]1ccn(C)c1,1-butyl-3-methylimidazolium acetate
ZEUSB,323.15,0.1,100,2,1074.4,Christabel et al. (2020),Density,Liquid,AAasxG,C[N+](C)(C)CCO.[Cl-],choline chloride,AALcAl,CC(=O)O,acetic acid,AAmGQS,CC(=O)[O-].CCCC[n+]1ccn(C)c1,1-butyl-3-methylimidazolium acetate
ZEUSB,323.15,0.2,100,2,1072.1,Christabel et al. (2020),Density,Liquid,AAasxG,C[N+](C)(C)CCO.[Cl-],choline chloride,AALcAl,CC(=O)O,acetic acid,AAmGQS,CC(=O)[O-].CCCC[n+]1ccn(C)c1,1-butyl-3-methylimidazolium acetate
ZEUSB,323.15,0.3,100,2,1068.5,Christabel et al. (2020),Density,Liquid,AAasxG,C[N+](C)(C)CCO.[Cl-],choline chloride,AALcAl,CC(=O)O,acetic acid,AAmGQS,CC(=O)[O-].CCCC[n+]1ccn(C)c1,1-butyl-3-methylimidazolium acetate
ZEUSB,323.15,0.4,100,2,1065.6,Christabel et al. (2020),Density,Liquid,AAasxG,C[N+](C)(C)CCO.[Cl-],choline chloride,AALcAl,CC(=O)O,acetic acid,AAmGQS,CC(=O)[O-].CCCC[n+]1ccn(C)c1,1-butyl-3-methylimidazolium acetate
ZEUSB,323.15,0.5,100,2,1061.2,Christabel et al. (2020),Density,Liquid,AAasxG,C[N+](C)(C)CCO.[Cl-],choline chloride,AALcAl,CC(=O)O,acetic acid,AAmGQS,CC(=O)[O-].CCCC[n+]1ccn(C)c1,1-butyl-3-methylimidazolium acetate
ZEUSB,323.15,0.6,100,2,1061.9,Christabel et al. (2020),Density,Liquid,AAasxG,C[N+](C)(C)CCO.[Cl-],choline chloride,AALcAl,CC(=O)O,acetic acid,AAmGQS,CC(=O)[O-].CCCC[n+]1ccn(C)c1,1-butyl-3-methylimidazolium acetate
ZEUSB,323.15,0.7,100,2,1055.2,Christabel et al. (2020),Density,Liquid,AAasxG,C[N+](C)(C)CCO.[Cl-],choline chloride,AALcAl,CC(=O)O,acetic acid,AAmGQS,CC(=O)[O-].CCCC[n+]1ccn(C)c1,1-butyl-3-methylimidazolium acetate
ZEUSB,323.15,0.8,100,2,1049.9,Christabel et al. (2020),Density,Liquid,AAasxG,C[N+](C)(C)CCO.[Cl-],choline chloride,AALcAl,CC(=O)O,acetic acid,AAmGQS,CC(=O)[O-].CCCC[n+]1ccn(C)c1,1-butyl-3-methylimidazolium acetate
ZEUSB,323.15,0.9,100,2,1045.5,Christabel et al. (2020),Density,Liquid,AAasxG,C[N+](C)(C)CCO.[Cl-],choline chloride,AALcAl,CC(=O)O,acetic acid,AAmGQS,CC(=O)[O-].CCCC[n+]1ccn(C)c1,1-butyl-3-methylimidazolium acetate
ZEUSB,323.15,1,100,2,1037.5,Christabel et al. (2020),Density,Liquid,AAasxG,C[N+](C)(C)CCO.[Cl-],choline chloride,AALcAl,CC(=O)O,acetic acid,AAmGQS,CC(=O)[O-].CCCC[n+]1ccn(C)c1,1-butyl-3-methylimidazolium acetate
ZEUSB,328.15,0,100,2,1069,Christabel et al. (2020),Density,Liquid,AAasxG,C[N+](C)(C)CCO.[Cl-],choline chloride,AALcAl,CC(=O)O,acetic acid,AAmGQS,CC(=O)[O-].CCCC[n+]1ccn(C)c1,1-butyl-3-methylimidazolium acetate
ZEUSB,328.15,0.1,100,2,1070.6,Christabel et al. (2020),Density,Liquid,AAasxG,C[N+](C)(C)CCO.[Cl-],choline chloride,AALcAl,CC(=O)O,acetic acid,AAmGQS,CC(=O)[O-].CCCC[n+]1ccn(C)c1,1-butyl-3-methylimidazolium acetate
ZEUSB,328.15,0.2,100,2,1068.4,Christabel et al. (2020),Density,Liquid,AAasxG,C[N+](C)(C)CCO.[Cl-],choline chloride,AALcAl,CC(=O)O,acetic acid,AAmGQS,CC(=O)[O-].CCCC[n+]1ccn(C)c1,1-butyl-3-methylimidazolium acetate
ZEUSB,328.15,0.3,100,2,1064.9,Christabel et al. (2020),Density,Liquid,AAasxG,C[N+](C)(C)CCO.[Cl-],choline chloride,AALcAl,CC(=O)O,acetic acid,AAmGQS,CC(=O)[O-].CCCC[n+]1ccn(C)c1,1-butyl-3-methylimidazolium acetate
ZEUSB,328.15,0.4,100,2,1062.2,Christabel et al. (2020),Density,Liquid,AAasxG,C[N+](C)(C)CCO.[Cl-],choline chloride,AALcAl,CC(=O)O,acetic acid,AAmGQS,CC(=O)[O-].CCCC[n+]1ccn(C)c1,1-butyl-3-methylimidazolium acetate
ZEUSB,328.15,0.5,100,2,1057.8,Christabel et al. (2020),Density,Liquid,AAasxG,C[N+](C)(C)CCO.[Cl-],choline chloride,AALcAl,CC(=O)O,acetic acid,AAmGQS,CC(=O)[O-].CCCC[n+]1ccn(C)c1,1-butyl-3-methylimidazolium acetate
ZEUSB,328.15,0.6,100,2,1058.5,Christabel et al. (2020),Density,Liquid,AAasxG,C[N+](C)(C)CCO.[Cl-],choline chloride,AALcAl,CC(=O)O,acetic acid,AAmGQS,CC(=O)[O-].CCCC[n+]1ccn(C)c1,1-butyl-3-methylimidazolium acetate
ZEUSB,328.15,0.7,100,2,1052,Christabel et al. (2020),Density,Liquid,AAasxG,C[N+](C)(C)CCO.[Cl-],choline chloride,AALcAl,CC(=O)O,acetic acid,AAmGQS,CC(=O)[O-].CCCC[n+]1ccn(C)c1,1-butyl-3-methylimidazolium acetate
ZEUSB,328.15,0.8,100,2,1046.7,Christabel et al. (2020),Density,Liquid,AAasxG,C[N+](C)(C)CCO.[Cl-],choline chloride,AALcAl,CC(=O)O,acetic acid,AAmGQS,CC(=O)[O-].CCCC[n+]1ccn(C)c1,1-butyl-3-methylimidazolium acetate
ZEUSB,328.15,0.9,100,2,1042.4,Christabel et al. (2020),Density,Liquid,AAasxG,C[N+](C)(C)CCO.[Cl-],choline chloride,AALcAl,CC(=O)O,acetic acid,AAmGQS,CC(=O)[O-].CCCC[n+]1ccn(C)c1,1-butyl-3-methylimidazolium acetate
ZEUSB,328.15,1,100,2,1034.6,Christabel et al. (2020),Density,Liquid,AAasxG,C[N+](C)(C)CCO.[Cl-],choline chloride,AALcAl,CC(=O)O,acetic acid,AAmGQS,CC(=O)[O-].CCCC[n+]1ccn(C)c1,1-butyl-3-methylimidazolium acetate
ZEUSB,333.15,0,100,2,1065.1,Christabel et al. (2020),Density,Liquid,AAasxG,C[N+](C)(C)CCO.[Cl-],choline chloride,AALcAl,CC(=O)O,acetic acid,AAmGQS,CC(=O)[O-].CCCC[n+]1ccn(C)c1,1-butyl-3-methylimidazolium acetate
ZEUSB,333.15,0.1,100,2,1066.9,Christabel et al. (2020),Density,Liquid,AAasxG,C[N+](C)(C)CCO.[Cl-],choline chloride,AALcAl,CC(=O)O,acetic acid,AAmGQS,CC(=O)[O-].CCCC[n+]1ccn(C)c1,1-butyl-3-methylimidazolium acetate
ZEUSB,333.15,0.2,100,2,1064.8,Christabel et al. (2020),Density,Liquid,AAasxG,C[N+](C)(C)CCO.[Cl-],choline chloride,AALcAl,CC(=O)O,acetic acid,AAmGQS,CC(=O)[O-].CCCC[n+]1ccn(C)c1,1-butyl-3-methylimidazolium acetate
ZEUSB,333.15,0.3,100,2,1061.4,Christabel et al. (2020),Density,Liquid,AAasxG,C[N+](C)(C)CCO.[Cl-],choline chloride,AALcAl,CC(=O)O,acetic acid,AAmGQS,CC(=O)[O-].CCCC[n+]1ccn(C)c1,1-butyl-3-methylimidazolium acetate