setid,"Temperature, K",Weight fraction of water,"Pressure, kPa",Solvent: Mole ratio of chromium chloride to other component of binary solvent,"Specific density, kg/m<SUP>3</SUP>",reference,propertiy,phases,compound id 1,smile 1,compound name 1,compound id 2,smile 2,compound name 2,compound id 3,smile 3,compound name 3
ENDte,283.15,0.243,101,0.333,1277.2,Sun and Brennecke (2015),Density,Liquid,AAeXHV,Cl[Cr](Cl)Cl,chromium chloride,AADYJk,O,water,AAherF,CCCC[n+]1ccn(C)c1.[Cl-],1-butyl-3-methylimidazolium chloride
ENDte,283.15,0.298,101,0.333,1259.2,Sun and Brennecke (2015),Density,Liquid,AAeXHV,Cl[Cr](Cl)Cl,chromium chloride,AADYJk,O,water,AAherF,CCCC[n+]1ccn(C)c1.[Cl-],1-butyl-3-methylimidazolium chloride
ENDte,283.15,0.346,101,0.333,1241.5,Sun and Brennecke (2015),Density,Liquid,AAeXHV,Cl[Cr](Cl)Cl,chromium chloride,AADYJk,O,water,AAherF,CCCC[n+]1ccn(C)c1.[Cl-],1-butyl-3-methylimidazolium chloride
ENDte,283.15,0.39,101,0.333,1225.5,Sun and Brennecke (2015),Density,Liquid,AAeXHV,Cl[Cr](Cl)Cl,chromium chloride,AADYJk,O,water,AAherF,CCCC[n+]1ccn(C)c1.[Cl-],1-butyl-3-methylimidazolium chloride
ENDte,293.15,0.243,101,0.333,1271,Sun and Brennecke (2015),Density,Liquid,AAeXHV,Cl[Cr](Cl)Cl,chromium chloride,AADYJk,O,water,AAherF,CCCC[n+]1ccn(C)c1.[Cl-],1-butyl-3-methylimidazolium chloride
ENDte,293.15,0.298,101,0.333,1253,Sun and Brennecke (2015),Density,Liquid,AAeXHV,Cl[Cr](Cl)Cl,chromium chloride,AADYJk,O,water,AAherF,CCCC[n+]1ccn(C)c1.[Cl-],1-butyl-3-methylimidazolium chloride
ENDte,293.15,0.346,101,0.333,1235.7,Sun and Brennecke (2015),Density,Liquid,AAeXHV,Cl[Cr](Cl)Cl,chromium chloride,AADYJk,O,water,AAherF,CCCC[n+]1ccn(C)c1.[Cl-],1-butyl-3-methylimidazolium chloride
ENDte,293.15,0.39,101,0.333,1219.7,Sun and Brennecke (2015),Density,Liquid,AAeXHV,Cl[Cr](Cl)Cl,chromium chloride,AADYJk,O,water,AAherF,CCCC[n+]1ccn(C)c1.[Cl-],1-butyl-3-methylimidazolium chloride
ENDte,298.15,0.243,101,0.333,1267.9,Sun and Brennecke (2015),Density,Liquid,AAeXHV,Cl[Cr](Cl)Cl,chromium chloride,AADYJk,O,water,AAherF,CCCC[n+]1ccn(C)c1.[Cl-],1-butyl-3-methylimidazolium chloride
ENDte,298.15,0.298,101,0.333,1250,Sun and Brennecke (2015),Density,Liquid,AAeXHV,Cl[Cr](Cl)Cl,chromium chloride,AADYJk,O,water,AAherF,CCCC[n+]1ccn(C)c1.[Cl-],1-butyl-3-methylimidazolium chloride
ENDte,298.15,0.346,101,0.333,1232.7,Sun and Brennecke (2015),Density,Liquid,AAeXHV,Cl[Cr](Cl)Cl,chromium chloride,AADYJk,O,water,AAherF,CCCC[n+]1ccn(C)c1.[Cl-],1-butyl-3-methylimidazolium chloride
ENDte,298.15,0.39,101,0.333,1216.8,Sun and Brennecke (2015),Density,Liquid,AAeXHV,Cl[Cr](Cl)Cl,chromium chloride,AADYJk,O,water,AAherF,CCCC[n+]1ccn(C)c1.[Cl-],1-butyl-3-methylimidazolium chloride
ENDte,303.15,0.243,101,0.333,1264.8,Sun and Brennecke (2015),Density,Liquid,AAeXHV,Cl[Cr](Cl)Cl,chromium chloride,AADYJk,O,water,AAherF,CCCC[n+]1ccn(C)c1.[Cl-],1-butyl-3-methylimidazolium chloride
ENDte,303.15,0.298,101,0.333,1247,Sun and Brennecke (2015),Density,Liquid,AAeXHV,Cl[Cr](Cl)Cl,chromium chloride,AADYJk,O,water,AAherF,CCCC[n+]1ccn(C)c1.[Cl-],1-butyl-3-methylimidazolium chloride
ENDte,303.15,0.346,101,0.333,1229.7,Sun and Brennecke (2015),Density,Liquid,AAeXHV,Cl[Cr](Cl)Cl,chromium chloride,AADYJk,O,water,AAherF,CCCC[n+]1ccn(C)c1.[Cl-],1-butyl-3-methylimidazolium chloride
ENDte,303.15,0.39,101,0.333,1213.9,Sun and Brennecke (2015),Density,Liquid,AAeXHV,Cl[Cr](Cl)Cl,chromium chloride,AADYJk,O,water,AAherF,CCCC[n+]1ccn(C)c1.[Cl-],1-butyl-3-methylimidazolium chloride
ENDte,313.15,0.243,101,0.333,1258.4,Sun and Brennecke (2015),Density,Liquid,AAeXHV,Cl[Cr](Cl)Cl,chromium chloride,AADYJk,O,water,AAherF,CCCC[n+]1ccn(C)c1.[Cl-],1-butyl-3-methylimidazolium chloride
ENDte,313.15,0.298,101,0.333,1240.9,Sun and Brennecke (2015),Density,Liquid,AAeXHV,Cl[Cr](Cl)Cl,chromium chloride,AADYJk,O,water,AAherF,CCCC[n+]1ccn(C)c1.[Cl-],1-butyl-3-methylimidazolium chloride
ENDte,313.15,0.346,101,0.333,1223.6,Sun and Brennecke (2015),Density,Liquid,AAeXHV,Cl[Cr](Cl)Cl,chromium chloride,AADYJk,O,water,AAherF,CCCC[n+]1ccn(C)c1.[Cl-],1-butyl-3-methylimidazolium chloride
ENDte,313.15,0.39,101,0.333,1207.9,Sun and Brennecke (2015),Density,Liquid,AAeXHV,Cl[Cr](Cl)Cl,chromium chloride,AADYJk,O,water,AAherF,CCCC[n+]1ccn(C)c1.[Cl-],1-butyl-3-methylimidazolium chloride
ENDte,323.15,0.243,101,0.333,1252.1,Sun and Brennecke (2015),Density,Liquid,AAeXHV,Cl[Cr](Cl)Cl,chromium chloride,AADYJk,O,water,AAherF,CCCC[n+]1ccn(C)c1.[Cl-],1-butyl-3-methylimidazolium chloride
ENDte,323.15,0.298,101,0.333,1234.5,Sun and Brennecke (2015),Density,Liquid,AAeXHV,Cl[Cr](Cl)Cl,chromium chloride,AADYJk,O,water,AAherF,CCCC[n+]1ccn(C)c1.[Cl-],1-butyl-3-methylimidazolium chloride
ENDte,323.15,0.346,101,0.333,1217.3,Sun and Brennecke (2015),Density,Liquid,AAeXHV,Cl[Cr](Cl)Cl,chromium chloride,AADYJk,O,water,AAherF,CCCC[n+]1ccn(C)c1.[Cl-],1-butyl-3-methylimidazolium chloride
ENDte,323.15,0.39,101,0.333,1201.8,Sun and Brennecke (2015),Density,Liquid,AAeXHV,Cl[Cr](Cl)Cl,chromium chloride,AADYJk,O,water,AAherF,CCCC[n+]1ccn(C)c1.[Cl-],1-butyl-3-methylimidazolium chloride
ENDte,333.15,0.243,101,0.333,1245.7,Sun and Brennecke (2015),Density,Liquid,AAeXHV,Cl[Cr](Cl)Cl,chromium chloride,AADYJk,O,water,AAherF,CCCC[n+]1ccn(C)c1.[Cl-],1-butyl-3-methylimidazolium chloride
ENDte,333.15,0.298,101,0.333,1228.1,Sun and Brennecke (2015),Density,Liquid,AAeXHV,Cl[Cr](Cl)Cl,chromium chloride,AADYJk,O,water,AAherF,CCCC[n+]1ccn(C)c1.[Cl-],1-butyl-3-methylimidazolium chloride
ENDte,333.15,0.346,101,0.333,1210.8,Sun and Brennecke (2015),Density,Liquid,AAeXHV,Cl[Cr](Cl)Cl,chromium chloride,AADYJk,O,water,AAherF,CCCC[n+]1ccn(C)c1.[Cl-],1-butyl-3-methylimidazolium chloride
ENDte,333.15,0.39,101,0.333,1195.4,Sun and Brennecke (2015),Density,Liquid,AAeXHV,Cl[Cr](Cl)Cl,chromium chloride,AADYJk,O,water,AAherF,CCCC[n+]1ccn(C)c1.[Cl-],1-butyl-3-methylimidazolium chloride
ENDte,343.15,0.243,101,0.333,1239.1,Sun and Brennecke (2015),Density,Liquid,AAeXHV,Cl[Cr](Cl)Cl,chromium chloride,AADYJk,O,water,AAherF,CCCC[n+]1ccn(C)c1.[Cl-],1-butyl-3-methylimidazolium chloride
ENDte,343.15,0.298,101,0.333,1221.4,Sun and Brennecke (2015),Density,Liquid,AAeXHV,Cl[Cr](Cl)Cl,chromium chloride,AADYJk,O,water,AAherF,CCCC[n+]1ccn(C)c1.[Cl-],1-butyl-3-methylimidazolium chloride
ENDte,343.15,0.346,101,0.333,1204.1,Sun and Brennecke (2015),Density,Liquid,AAeXHV,Cl[Cr](Cl)Cl,chromium chloride,AADYJk,O,water,AAherF,CCCC[n+]1ccn(C)c1.[Cl-],1-butyl-3-methylimidazolium chloride
ENDte,343.15,0.39,101,0.333,1188.6,Sun and Brennecke (2015),Density,Liquid,AAeXHV,Cl[Cr](Cl)Cl,chromium chloride,AADYJk,O,water,AAherF,CCCC[n+]1ccn(C)c1.[Cl-],1-butyl-3-methylimidazolium chloride
ENDte,353.15,0.243,101,0.333,1232.2,Sun and Brennecke (2015),Density,Liquid,AAeXHV,Cl[Cr](Cl)Cl,chromium chloride,AADYJk,O,water,AAherF,CCCC[n+]1ccn(C)c1.[Cl-],1-butyl-3-methylimidazolium chloride
ENDte,353.15,0.298,101,0.333,1214.3,Sun and Brennecke (2015),Density,Liquid,AAeXHV,Cl[Cr](Cl)Cl,chromium chloride,AADYJk,O,water,AAherF,CCCC[n+]1ccn(C)c1.[Cl-],1-butyl-3-methylimidazolium chloride
ENDte,353.15,0.346,101,0.333,1197.2,Sun and Brennecke (2015),Density,Liquid,AAeXHV,Cl[Cr](Cl)Cl,chromium chloride,AADYJk,O,water,AAherF,CCCC[n+]1ccn(C)c1.[Cl-],1-butyl-3-methylimidazolium chloride
ENDte,353.15,0.39,101,0.333,1181.7,Sun and Brennecke (2015),Density,Liquid,AAeXHV,Cl[Cr](Cl)Cl,chromium chloride,AADYJk,O,water,AAherF,CCCC[n+]1ccn(C)c1.[Cl-],1-butyl-3-methylimidazolium chloride