{"expmeth": "Standard Abbe refractometry", "data": [[["298.15"], ["101.325"], ["1.41787", "0.00095"]]], "solvent": null, "footer": "", "dhead": [["Temperature, K", null], ["Pressure, kPa", null], ["Refractive index (Na D-line)", "Liquid"]], "components": [{"name": "1-hexyl-3-methylimidazolium hexafluorophosphate", "formula": "C<SUB>10</SUB>H<SUB>19</SUB>F<SUB>6</SUB>N<SUB>2</SUB>P", "idout": "ABICIG", "mw": "312.24", "sample": [["Source:", "commercial source"], ["Initial purification:", "stated by supplier"], ["Initial purity:", "98 mass %"], ["Final purification:", "Karl Fischer titration"], ["Final purity:", "0.03 water mass %(de-gassed by boiling or ultrasonically;molecular sieve treatment)"]]}], "title": "Refraction, surface tension, and speed of sound: Refractive index (Na D-line)", "phases": ["Liquid"], "constr": [], "ref": {"title": "Ternary (liquid + liquid) equilibria of the azeotrope (ethyl acetate + 2-propanol) with different ionic liquids at T = 298.15 K", "full": "Pereiro, A. B.; Rodriguez, A. (2007) J. Chem. Thermodyn. 39(12), 1608-1613."}}