{"ref": {"title": "Phase behaviour of 1-ethyl-3-Methylimidazolium thiocyanate [EMIM][SCN ionic liquid with catalytic deactivated compounds and water at several temperatures", "full": "Anantharaj, R.; Banerjee, T. (2011) Int. J. Chem. Eng. 209435."}, "constr": [], "phases": ["Liquid"], "components": [{"sample": [["Source:", "commercial source"], ["Initial purification:", "stated by supplier"], ["Initial purity:", "95 mass %"], ["Final purification:", "Karl Fischer titration"], ["Final purity:", "0.044 water mass %"]], "formula": "C<SUB>7</SUB>H<SUB>11</SUB>N<SUB>3</SUB>S", "name": "1-ethyl-3-methylimidazolium thiocyanate", "idout": "AAgcST", "mw": "169.25"}], "title": "Refraction, surface tension, and speed of sound: Refractive index (Na D-line)", "dhead": [["Temperature, K", null], ["Pressure, kPa", null], ["Refractive index (Na D-line)", "Liquid"]], "data": [[["298.15"], ["101.325"], ["1.5377", "0.0011"]]], "solvent": null, "footer": "", "expmeth": "Standard Abbe refractometry"}