{"components": [{"sample": [["Source:", "commercial source"], ["Initial purification:", "stated by supplier"], ["Initial purity:", "99 mass %"], ["Final purification:", "Karl Fischer titration"], ["Final purity:", "0.068 water mass %"]], "formula": "C<SUB>8</SUB>H<SUB>16</SUB>N<SUB>2</SUB>O<SUB>4</SUB>S", "name": "1-ethyl-3-methylimidazolium ethyl sulfate", "mw": "236.29", "idout": "AAtWDT"}], "title": "Refraction, surface tension, and speed of sound: Refractive index (Na D-line)", "dhead": [["Temperature, K", null], ["Pressure, kPa", null], ["Refractive index (Na D-line)", "Liquid"]], "solvent": null, "data": [[["288.15"], ["100"], ["1.48155", "0.00069"]], [["293.15"], ["100"], ["1.48018", "0.00069"]], [["298.15"], ["100"], ["1.47882", "0.00069"]], [["303.15"], ["100"], ["1.47746", "0.00069"]], [["308.15"], ["100"], ["1.47611", "0.00069"]], [["313.15"], ["100"], ["1.47474", "0.00069"]], [["318.15"], ["100"], ["1.47341", "0.00069"]], [["323.15"], ["100"], ["1.47206", "0.00069"]], [["328.15"], ["100"], ["1.47075", "0.00069"]], [["333.15"], ["100"], ["1.46943", "0.00069"]]], "footer": "", "expmeth": "Standard Abbe refractometry", "ref": {"full": "Zivkovic, Emila M.; Zivkovic, Nikola V.; Majstorovic, Divna M.; Stanimirovic, Andrej M.; Kijevcanin, Mirjana Lj. (2018) J. Chem. Thermodyn. 119, 135-154.", "title": "Volumetric and transport properties of binary liquid mixtures with 1-ethyl-3-methylimidazolium ethyl sulfate as candidate solvents for regenerative flue gas desulfurization processes"}, "constr": [], "phases": ["Liquid"]}