{"constr": [], "ref": {"full": "Hwang, I.-C.; Kwon, R.-H.; Park, S.-J. (2013) Fluid Phase Equilib. 344, 32-37.", "title": "Azeotrope breaking for the system ethyl tert-butyl ether (ETBE) + ethanol at 313.15 K and excess properties at 298.15 K for mixtures of ETBE and ethanol with phosphonium-based ionic liquids"}, "phases": ["Liquid"], "components": [{"sample": [["Source:", "commercial source"], ["Purification:", "gas chromatography"], ["Purity:", "99.9 mol %"]], "name": "2-ethoxy-2-methylpropane", "formula": "C<SUB>6</SUB>H<SUB>14</SUB>O", "mw": "102.18", "idout": "AAThrn"}, {"sample": [["Source:", "commercial source"], ["Initial purification:", "gas chromatography"], ["Initial purity:", "99 mol %"], ["Final purification:", "Karl Fischer titration"], ["Final purity:", "0.06 water mass %"]], "formula": "C<SUB>32</SUB>H<SUB>68</SUB>ClP", "name": "trihexyl(tetradecyl)phosphonium chloride", "mw": "519.32", "idout": "ABvtRE"}], "title": "Refraction, surface tension, and speed of sound: Refractive index (Na D-line)", "dhead": [["Mole fraction of 2-ethoxy-2-methylpropane", "Liquid"], ["Pressure, kPa", null], ["Temperature, K", null], ["Refractive index (Na D-line)", "Liquid"]], "data": [[["0.0473"], ["101"], ["298.15"], ["1.4804", "0.0004"]], [["0.1037"], ["101"], ["298.15"], ["1.4788", "0.0004"]], [["0.1961"], ["101"], ["298.15"], ["1.4762", "0.0004"]], [["0.3076"], ["101"], ["298.15"], ["1.4727", "0.0004"]], [["0.3968"], ["101"], ["298.15"], ["1.4688", "0.0004"]], [["0.5075"], ["101"], ["298.15"], ["1.4624", "0.0004"]], [["0.5981"], ["101"], ["298.15"], ["1.4562", "0.0004"]], [["0.6992"], ["101"], ["298.15"], ["1.4463", "0.0004"]], [["0.7993"], ["101"], ["298.15"], ["1.432", "0.0004"]], [["0.8987"], ["101"], ["298.15"], ["1.4104", "0.0004"]], [["0.9496"], ["101"], ["298.15"], ["1.3943", "0.0004"]]], "solvent": null, "footer": "", "expmeth": "Standard Abbe refractometry"}