{"constr": [], "ref": {"title": "Density and Refractive Index of Binary Mixtures of Two 1-Alkyl-3-methylimidazolium Ionic Liquids with 1,4-Dioxane and Ethylene Glycol", "full": "Ciocirlan, O.; Croitoru, O.; Iulian, O. (2014) J. Chem. Eng. Data 59(4), 1165-1174."}, "phases": ["Liquid"], "dhead": [["Temperature, K", null], ["Pressure, kPa", null], ["Refractive index (Na D-line)", "Liquid"]], "components": [{"formula": "C<SUB>6</SUB>H<SUB>11</SUB>BF<SUB>4</SUB>N<SUB>2</SUB>", "name": "1-ethyl-3-methylimidazolium tetrafluoroborate", "idout": "AAmDom", "mw": "197.97", "sample": [["Source:", "commercial source"], ["Purification:", "stated by supplier"], ["Purity:", "98 mass %"], ["Purity analysis:", "none used"]]}], "title": "Refraction, surface tension, and speed of sound: Refractive index (Na D-line)", "expmeth": "Standard Abbe refractometry", "solvent": null, "data": [[["298.15"], ["101.325"], ["1.4111", "0.0005"]], [["303.15"], ["101.325"], ["1.41", "0.0005"]], [["313.15"], ["101.325"], ["1.4073", "0.0005"]], [["323.15"], ["101.325"], ["1.4051", "0.0005"]]], "footer": ""}