{"ref": {"title": "Physicochemical Characterization of New Sulfonate and Sulfate  Ammonium Ionic Liquids", "full": "Mahrova, M.; Vilas, M.; Dominguez, A.; Gomez, E.; Calvar, N.; Tojo, E. (2012) J. Chem. Eng. Data 57(2), 241-248."}, "constr": [], "phases": ["Liquid"], "components": [{"idout": "AAupsz", "mw": "243.32", "formula": "C<SUB>8</SUB>H<SUB>21</SUB>NO<SUB>5</SUB>S", "name": "N-ethyl-N-(2-hydroxyethyl)-N,N-dimethylammonium ethyl sulfate", "sample": [["Source:", "synthesized by the authors"], ["Initial purification:", "estimated by the compiler"], ["Initial purity:", "98 mol %"], ["Final purification:", "Karl Fischer titration"], ["Final purity:", "0.00006 water mass %"]]}], "title": "Refraction, surface tension, and speed of sound: Refractive index (Na D-line)", "dhead": [["Temperature, K", null], ["Pressure, kPa", null], ["Refractive index (Na D-line)", "Liquid"]], "data": [[["298.15"], ["101.325"], ["1.47303", "0.00078"]]], "solvent": null, "footer": "", "expmeth": "Standard Abbe refractometry"}