{"constr": [], "ref": {"full": "Wu, X.-L.; Sang, X.-Y.; Li, Z.-M.; Tao, D.-J. (2020) J. Mol. Liq. 312, 113405.", "title": "Study on physicochemical properties and basicity of carbanion-functionalized ionic liquids"}, "phases": ["Liquid"], "components": [{"formula": "C<SUB>25</SUB>H<SUB>51</SUB>O<SUB>2</SUB>P", "name": "tributyl(octyl)phosphonium acetylacetonate", "mw": "414.65", "idout": "ABbmnc", "sample": [["Source:", "synthesized by the authors"], ["Initial purification:", "NMR (proton)"], ["Initial purity:", "99.2 mass %"], ["Final purification:", "Karl Fischer titration"], ["Final purity:", "0.15 water mass %"]]}], "title": "Refraction, surface tension, and speed of sound: Refractive index (Na D-line)", "dhead": [["Temperature, K", null], ["Pressure, kPa", null], ["Refractive index (Na D-line)", "Liquid"]], "data": [[["298.111"], ["101.325"], ["1.51152", "0.002"]], [["303.156"], ["101.325"], ["1.51014", "0.002"]], [["308.152"], ["101.325"], ["1.50833", "0.002"]], [["313.158"], ["101.325"], ["1.50661", "0.002"]], [["318.129"], ["101.325"], ["1.50525", "0.002"]], [["323.153"], ["101.325"], ["1.5033", "0.002"]], [["328.149"], ["101.325"], ["1.50194", "0.002"]], [["333.162"], ["101.325"], ["1.50023", "0.002"]], [["338.154"], ["101.325"], ["1.49843", "0.002"]], [["343.118"], ["101.325"], ["1.4968", "0.002"]]], "solvent": null, "footer": "", "expmeth": "Standard Abbe refractometry"}