{"ref": {"title": "Measurements of the liquid liquid phase equilibria of binary solutions of 1-methyl-3-octylimidazolium tetrafluoroborate with 1-heptanol or 2-pentanol", "full": "Zhang, X.; Cui, Z.; Yin, T.; Zheng, P.; Zhao, J. (2015) Fluid Phase Equilib. 394, 156-164."}, "constr": [], "phases": ["Liquid mixture 1", "Liquid mixture 2"], "components": [{"sample": [["Source:", "commercial source"], ["Purification:", "stated by supplier"], ["Purity:", "99 mass %"], ["Purity analysis:", "molecular sieve treatment"]], "formula": "C<SUB>7</SUB>H<SUB>16</SUB>O", "name": "heptan-1-ol", "mw": "116.20", "idout": "AAWSDQ"}, {"mw": "282.13", "idout": "ABCNhW", "formula": "C<SUB>12</SUB>H<SUB>23</SUB>BF<SUB>4</SUB>N<SUB>2</SUB>", "name": "1-methyl-3-octylimidazolium tetrafluoroborate", "sample": [["Source:", "commercial source"], ["Initial purification:", "stated by supplier"], ["Initial purity:", "99 mass %"], ["Final purification:", "Karl Fischer titration"], ["Final purity:", "0.0158 water mass %(dried in a desiccator;dried by vacuum heating)"]]}], "title": "Refraction, surface tension, and speed of sound: Refractive index", "dhead": [["Temperature, K", null], ["Mole fraction of 1-methyl-3-octylimidazolium tetrafluoroborate", "Liquid mixture 1"], ["Wavelength, A", "Liquid mixture 1"], ["Refractive index", "Liquid mixture 1"]], "data": [[["298.87"], ["0.01"], ["623.8"], ["1.4213", "0.0003"]], [["299.671"], ["0.011"], ["623.8"], ["1.421", "0.0003"]], [["300.453"], ["0.011"], ["623.8"], ["1.4207", "0.0003"]], [["301.203"], ["0.016"], ["623.8"], ["1.4205", "0.0003"]], [["301.926"], ["0.015"], ["623.8"], ["1.4202", "0.0003"]], [["302.629"], ["0.019"], ["623.8"], ["1.42", "0.0003"]], [["303.307"], ["0.023"], ["623.8"], ["1.4198", "0.0003"]], [["303.937"], ["0.025"], ["623.8"], ["1.4196", "0.0003"]], [["304.502"], ["0.027"], ["623.8"], ["1.4194", "0.0003"]], [["304.995"], ["0.031"], ["623.8"], ["1.4193", "0.0003"]], [["305.414"], ["0.035"], ["623.8"], ["1.4192", "0.0003"]], [["305.779"], ["0.037"], ["623.8"], ["1.4191", "0.0003"]], [["306.087"], ["0.038"], ["623.8"], ["1.419", "0.0003"]], [["306.337"], ["0.043"], ["623.8"], ["1.419", "0.0003"]], [["306.538"], ["0.048"], ["623.8"], ["1.419", "0.0003"]], [["306.704"], ["0.051"], ["623.8"], ["1.419", "0.0003"]], [["306.833"], ["0.06"], ["623.8"], ["1.4191", "0.0003"]], [["306.934"], ["0.062"], ["623.8"], ["1.4191", "0.0003"]], [["307.023"], ["0.064"], ["623.8"], ["1.4191", "0.0003"]], [["307.099"], ["0.071"], ["623.8"], ["1.4192", "0.0003"]], [["307.164"], ["0.073"], ["623.8"], ["1.4192", "0.0003"]], [["307.215"], ["0.08"], ["623.8"], ["1.4193", "0.0003"]], [["307.261"], ["0.081"], ["623.8"], ["1.4193", "0.0003"]], [["307.3"], ["0.081"], ["623.8"], ["1.4193", "0.0003"]], [["307.333"], ["0.082"], ["623.8"], ["1.4193", "0.0003"]], [["307.364"], ["0.089"], ["623.8"], ["1.4194", "0.0003"]], [["307.39"], ["0.089"], ["623.8"], ["1.4194", "0.0003"]], [["307.414"], ["0.09"], ["623.8"], ["1.4194", "0.0003"]], [["307.435"], ["0.096"], ["623.8"], ["1.4195", "0.0003"]], [["307.452"], ["0.097"], ["623.8"], ["1.4195", "0.0003"]], [["307.468"], ["0.097"], ["623.8"], ["1.4195", "0.0003"]], [["307.48"], ["0.097"], ["623.8"], ["1.4195", "0.0003"]], [["307.49"], ["0.104"], ["623.8"], ["1.4196", "0.0003"]], [["307.499"], ["0.104"], ["623.8"], ["1.4196", "0.0003"]], [["307.508"], ["0.104"], ["623.8"], ["1.4196", "0.0003"]], [["307.516"], ["0.104"], ["623.8"], ["1.4196", "0.0003"]], [["307.521"], ["0.111"], ["623.8"], ["1.4197", "0.0003"]], [["307.525"], ["0.111"], ["623.8"], ["1.4197", "0.0003"]], [["307.528"], ["0.111"], ["623.8"], ["1.4197", "0.0003"]], [["307.53"], ["0.117"], ["623.8"], ["1.4198", "0.0004"]], [["307.534"], ["0.117"], ["623.8"], ["1.4198", "0.0003"]]], "solvent": null, "footer": "", "expmeth": "Minimum deviation"}