{"phases": ["Liquid"], "ref": {"full": "Shekaari, H.; Jebali, F. (2010) J. Solution Chem. 39, 1409.", "title": "Solute Solvent Interactions of Amino Acids in Aqueous  1-Propyl-3-Methylimidazolium Bromide Ionic Liquid  Solutions at 298.15 K"}, "constr": [], "expmeth": "Standard Abbe refractometry", "data": [[["0"], ["0"], ["298.15"], ["101.3"], ["1.3326", "0.0004"]], [["0"], ["0.1173"], ["298.15"], ["101.3"], ["1.3348", "0.0004"]], [["0"], ["0.1402"], ["298.15"], ["101.3"], ["1.3353", "0.0004"]], [["0"], ["0.1894"], ["298.15"], ["101.3"], ["1.3363", "0.0004"]], [["0"], ["0.2512"], ["298.15"], ["101.3"], ["1.3375", "0.0004"]], [["0"], ["0.2973"], ["298.15"], ["101.3"], ["1.3384", "0.0004"]], [["0"], ["0.3211"], ["298.15"], ["101.3"], ["1.3389", "0.0004"]], [["0"], ["0.3841"], ["298.15"], ["101.3"], ["1.3401", "0.0004"]], [["0"], ["0.4378"], ["298.15"], ["101.3"], ["1.341", "0.0004"]], [["0.0965"], ["0"], ["298.15"], ["101.3"], ["1.3358", "0.0004"]], [["0.0965"], ["0.0846"], ["298.15"], ["101.3"], ["1.3372", "0.0004"]], [["0.0965"], ["0.1573"], ["298.15"], ["101.3"], ["1.3386", "0.0004"]], [["0.0965"], ["0.1911"], ["298.15"], ["101.3"], ["1.3392", "0.0004"]], [["0.0965"], ["0.24"], ["298.15"], ["101.3"], ["1.3402", "0.0004"]], [["0.0965"], ["0.2985"], ["298.15"], ["101.3"], ["1.3413", "0.0004"]], [["0.0965"], ["0.35"], ["298.15"], ["101.3"], ["1.3423", "0.0004"]], [["0.0965"], ["0.3943"], ["298.15"], ["101.3"], ["1.3428", "0.0004"]], [["0.1965"], ["0"], ["298.15"], ["101.3"], ["1.3388", "0.0004"]], [["0.1965"], ["0.1046"], ["298.15"], ["101.3"], ["1.3408", "0.0004"]], [["0.1965"], ["0.1475"], ["298.15"], ["101.3"], ["1.3417", "0.0004"]], [["0.1965"], ["0.1977"], ["298.15"], ["101.3"], ["1.3427", "0.0004"]], [["0.1965"], ["0.2507"], ["298.15"], ["101.3"], ["1.3438", "0.0004"]], [["0.1965"], ["0.2965"], ["298.15"], ["101.3"], ["1.3447", "0.0004"]], [["0.1965"], ["0.3552"], ["298.15"], ["101.3"], ["1.3458", "0.0004"]], [["0.1965"], ["0.3899"], ["298.15"], ["101.3"], ["1.3466", "0.0004"]], [["0.1965"], ["0.4455"], ["298.15"], ["101.3"], ["1.3476", "0.0004"]], [["0.2946"], ["0"], ["298.15"], ["101.3"], ["1.3414", "0.0004"]], [["0.2946"], ["0.1022"], ["298.15"], ["101.3"], ["1.3437", "0.0004"]], [["0.2946"], ["0.1492"], ["298.15"], ["101.3"], ["1.3446", "0.0004"]], [["0.2946"], ["0.2074"], ["298.15"], ["101.3"], ["1.3457", "0.0004"]], [["0.2946"], ["0.2433"], ["298.15"], ["101.3"], ["1.3464", "0.0004"]], [["0.2946"], ["0.2907"], ["298.15"], ["101.3"], ["1.3473", "0.0004"]], [["0.2946"], ["0.3357"], ["298.15"], ["101.3"], ["1.3482", "0.0004"]], [["0.2946"], ["0.397"], ["298.15"], ["101.3"], ["1.3494", "0.0004"]], [["0.2946"], ["0.4669"], ["298.15"], ["101.3"], ["1.3508", "0.0004"]], [["0.3949"], ["0"], ["298.15"], ["101.3"], ["1.3434", "0.0004"]], [["0.3949"], ["0.0992"], ["298.15"], ["101.3"], ["1.3462", "0.0004"]], [["0.3949"], ["0.1538"], ["298.15"], ["101.3"], ["1.3473", "0.0004"]], [["0.3949"], ["0.1963"], ["298.15"], ["101.3"], ["1.3481", "0.0004"]], [["0.3949"], ["0.2574"], ["298.15"], ["101.3"], ["1.3493", "0.0004"]], [["0.3949"], ["0.3128"], ["298.15"], ["101.3"], ["1.3503", "0.0004"]], [["0.3949"], ["0.3453"], ["298.15"], ["101.3"], ["1.351", "0.0004"]], [["0.3949"], ["0.387"], ["298.15"], ["101.3"], ["1.3518", "0.0004"]], [["0.3949"], ["0.476"], ["298.15"], ["101.3"], ["1.3536", "0.0004"]]], "solvent": "water", "footer": "", "dhead": [["MolaLity of 1-methyl-3-propylimidazolium bromide, mol/kg", "Liquid"], ["MolaLity of L-valine, mol/kg", "Liquid"], ["Temperature, K", null], ["Pressure, kPa", null], ["Refractive index (Na D-line)", "Liquid"]], "components": [{"mw": "117.15", "idout": "AAWbiv", "name": "L-valine", "formula": "C<SUB>5</SUB>H<SUB>11</SUB>NO<SUB>2</SUB>", "sample": [["Source:", "commercial source"], ["Purification:", "stated by supplier"], ["Purity:", "99 mol %"]]}, {"sample": [["Source:", "commercial source"], ["Purification:", "estimated by the compiler"], ["Purity:", "99.9 mol %(fractional distillation)"]], "idout": "AADYJk", "mw": "18.02", "formula": "H<SUB>2</SUB>O", "name": "water"}, {"sample": [["Source:", "synthesized by the authors"], ["Purification:", "NMR (proton);Karl Fischer titration"], ["Purity:", "99 mass %;0.02 water mass %(dried by vacuum heating;fractional crystallization)"]], "formula": "C<SUB>7</SUB>H<SUB>13</SUB>BrN<SUB>2</SUB>", "name": "1-methyl-3-propylimidazolium bromide", "mw": "205.10", "idout": "AAnWVs"}], "title": "Refraction, surface tension, and speed of sound: Refractive index (Na D-line)"}