{"ref": {"full": "Paredes, X.; Queiros, C.S.G.P.; Santos, F.J.V.; Santos, A.F.; Santos, M.S.C.S.; Lourenco, M. J. V.; Castro, C.A. Nieto de (2020) J. Phys. Chem. Ref. Data 49, 043101.", "title": "Thermophysical Properties of 1-Hexyl-3-methylimidazolium bis(trifluoromethylsulfonyl)imide, [C_6mim] [(CF_3SO_2)_2N] New Data, Reference Data, and Reference Correlations"}, "constr": [], "phases": ["Liquid"], "title": "Refraction, surface tension, and speed of sound: Refractive index (Na D-line)", "components": [{"mw": "447.41", "idout": "ABiCtA", "formula": "C<SUB>12</SUB>H<SUB>19</SUB>F<SUB>6</SUB>N<SUB>3</SUB>O<SUB>4</SUB>S<SUB>2</SUB>", "name": "1-hexyl-3-methylimidazolium bis[(trifluoromethyl)sulfonyl]imide", "sample": [["Source:", "synthesized by others"], ["Initial purification:", "NMR (proton)"], ["Initial purity:", "99.5 % (basis not specified)"], ["Final purification:", "Karl Fischer titration"], ["Final purity:", "0.002 water mass %"]]}], "dhead": [["Temperature, K", null], ["Pressure, kPa", null], ["Refractive index (Na D-line)", "Liquid"]], "footer": "", "data": [[["283.15"], ["101.325"], ["1.43461", "0.00034"]], [["288.15"], ["101.325"], ["1.43311", "0.00034"]], [["293.15"], ["101.325"], ["1.4316", "0.00034"]], [["298.15"], ["101.325"], ["1.43012", "0.00034"]], [["303.15"], ["101.325"], ["1.42863", "0.00034"]], [["308.15"], ["101.325"], ["1.42715", "0.00034"]], [["313.15"], ["101.325"], ["1.42566", "0.00034"]], [["318.15"], ["101.325"], ["1.42414", "0.00034"]], [["323.15"], ["101.325"], ["1.42262", "0.00034"]], [["328.15"], ["101.325"], ["1.42115", "0.00034"]], [["333.15"], ["101.325"], ["1.41969", "0.00034"]], [["338.15"], ["101.325"], ["1.41827", "0.00034"]], [["343.15"], ["101.325"], ["1.41684", "0.00034"]]], "solvent": null, "expmeth": "Standard Abbe refractometry"}