{"title": "Refraction, surface tension, and speed of sound: Refractive index (Na D-line)", "components": [{"formula": "C<SUB>8</SUB>H<SUB>17</SUB>N<SUB>2</SUB>O<SUB>4</SUB>P", "name": "1-ethyl-3-methylimidazolium dimethylphosphate", "mw": "236.21", "idout": "AAtWRk", "sample": [["Source:", "commercial source"], ["Initial purification:", "NMR (proton)"], ["Initial purity:", "99 mass %"], ["Final purification:", "NMR (proton)"], ["Final purity:", "0.014 water mass %(dried by oven heating)"]]}], "dhead": [["Temperature, K", null], ["Pressure, kPa", null], ["Refractive index (Na D-line)", "Liquid"]], "footer": "", "data": [[["298.19"], ["101.325"], ["1.48175", "0.00051"]], [["303.1"], ["101.325"], ["1.4805", "0.00052"]], [["308.01"], ["101.325"], ["1.47909", "0.00053"]], [["312.91"], ["101.325"], ["1.47771", "0.00053"]], [["317.82"], ["101.325"], ["1.47636", "0.00052"]], [["322.73"], ["101.325"], ["1.47511", "0.00052"]], [["327.64"], ["101.325"], ["1.47384", "0.00052"]]], "solvent": null, "expmeth": "Standard Abbe refractometry", "ref": {"full": "Freire, M. G.; Teles, A. R. R.; Rocha, M. A. A.; Schroder, B.; Neves, C. M. S. S.; Carvalho, P. J.; Evtuguin, D. V.; Santos, L. M. N. B. F.; Coutinho, J. A. P. (2011) J. Chem. Eng. Data 56(12), 4813-4822.", "title": "Thermophysical Characterization of Ionic Liquids Able To Dissolve Biomass"}, "constr": [], "phases": ["Liquid"]}