{"constr": [], "ref": {"full": "Vaid, Z. S.; More, U. U.; Oswal, S. B.; Malek, N. I. (2016) Thermochim. Acta 634, 38-47.", "title": "Experimental and theoretical excess molar properties of imidazolium based ionic liquids with isomers of butanol"}, "phases": ["Liquid"], "components": [{"sample": [["Source:", "commercial source"], ["Initial purification:", "stated by supplier"], ["Initial purity:", "99.5 mass %"], ["Final purification:", "gas chromatography"], ["Final purity:", "99.6 mass %(fractional distillation)"]], "idout": "AAONVE", "mw": "74.12", "formula": "C<SUB>4</SUB>H<SUB>10</SUB>O", "name": "butan-1-ol"}, {"name": "1-methyl-3-octylimidazolium tetrafluoroborate", "formula": "C<SUB>12</SUB>H<SUB>23</SUB>BF<SUB>4</SUB>N<SUB>2</SUB>", "idout": "ABCNhW", "mw": "282.13", "sample": [["Source:", "synthesized by the authors"], ["Purification:", "Karl Fischer titration;NMR (proton)"], ["Purity:", "0.0089 water mass %;98 mass %(dried by vacuum heating)"]]}], "title": "Refraction, surface tension, and speed of sound: Refractive index (Na D-line)", "dhead": [["Temperature, K", null], ["Mole fraction of 1-methyl-3-octylimidazolium tetrafluoroborate", "Liquid"], ["Pressure, kPa", null], ["Refractive index (Na D-line)", "Liquid"]], "solvent": null, "data": [[["298.15"], ["0"], ["100"], ["1.39728", "0.0016"]], [["298.15"], ["0.103"], ["100"], ["1.40763", "0.0016"]], [["298.15"], ["0.202"], ["100"], ["1.41502", "0.0016"]], [["298.15"], ["0.306"], ["100"], ["1.41903", "0.0016"]], [["298.15"], ["0.399"], ["100"], ["1.42183", "0.0016"]], [["298.15"], ["0.506"], ["100"], ["1.42405", "0.0016"]], [["298.15"], ["0.602"], ["100"], ["1.42594", "0.0016"]], [["298.15"], ["0.698"], ["100"], ["1.42791", "0.0016"]], [["298.15"], ["0.801"], ["100"], ["1.42974", "0.0017"]], [["298.15"], ["0.906"], ["100"], ["1.43151", "0.0017"]], [["298.15"], ["1"], ["100"], ["1.43253", "0.0017"]], [["308.15"], ["0"], ["100"], ["1.39324", "0.0016"]], [["308.15"], ["0.103"], ["100"], ["1.40492", "0.0016"]], [["308.15"], ["0.202"], ["100"], ["1.41254", "0.0016"]], [["308.15"], ["0.306"], ["100"], ["1.41692", "0.0016"]], [["308.15"], ["0.399"], ["100"], ["1.41956", "0.0016"]], [["308.15"], ["0.506"], ["100"], ["1.42175", "0.0016"]], [["308.15"], ["0.602"], ["100"], ["1.42362", "0.0016"]], [["308.15"], ["0.698"], ["100"], ["1.42542", "0.0016"]], [["308.15"], ["0.801"], ["100"], ["1.42732", "0.0017"]], [["308.15"], ["0.906"], ["100"], ["1.42861", "0.0017"]], [["308.15"], ["1"], ["100"], ["1.42984", "0.0017"]], [["318.15"], ["0"], ["100"], ["1.38911", "0.0016"]], [["318.15"], ["0.103"], ["100"], ["1.40232", "0.0016"]], [["318.15"], ["0.202"], ["100"], ["1.40964", "0.0016"]], [["318.15"], ["0.306"], ["100"], ["1.41438", "0.0016"]], [["318.15"], ["0.399"], ["100"], ["1.41736", "0.0016"]], [["318.15"], ["0.506"], ["100"], ["1.41965", "0.0016"]], [["318.15"], ["0.602"], ["100"], ["1.42126", "0.0016"]], [["318.15"], ["0.698"], ["100"], ["1.42301", "0.0016"]], [["318.15"], ["0.801"], ["100"], ["1.42444", "0.0017"]], [["318.15"], ["0.906"], ["100"], ["1.42615", "0.0017"]], [["318.15"], ["1"], ["100"], ["1.42715", "0.0017"]]], "footer": "", "expmeth": "Standard Abbe refractometry"}