{"title": "Refraction, surface tension, and speed of sound: Refractive index (Na D-line)", "components": [{"sample": [["Source:", "commercial source"], ["Initial purification:", "stated by supplier"], ["Initial purity:", "99.9 mass %"], ["Final purification:", "Karl Fischer titration"], ["Final purity:", "0.06 water mass %(dried by vacuum heating)"]], "name": "1-butyl-3-methylimidazolium bis(trifluoromethylsulfonyl)imide", "formula": "C<SUB>10</SUB>H<SUB>15</SUB>F<SUB>6</SUB>N<SUB>3</SUB>O<SUB>4</SUB>S<SUB>2</SUB>", "idout": "ABchwx", "mw": "419.36"}], "dhead": [["Temperature, K", null], ["Pressure, kPa", null], ["Refractive index (Na D-line)", "Liquid"]], "footer": "", "data": [[["298.15"], ["101.325"], ["1.42706", "0.00031"]]], "solvent": null, "expmeth": "Standard Abbe refractometry", "ref": {"full": "Dominguez, I.; Requejo, P. F.; Canosa, J.; Dominguez, A. (2014) J. Chem. Thermodyn. 74, 138-143.", "title": "(Liquid + liquid) equilibrium at T = 298.15 K for ternary mixtures of alkane + aromatic compounds + imidazolium-based ionic liquids"}, "constr": [], "phases": ["Liquid"]}