{"title": "Refraction, surface tension, and speed of sound: Refractive index (Na D-line)", "components": [{"name": "tributyl(octyl)phosphonium 1,3-dioxo-1,3-diphenylpropan-2-ide", "formula": "C<SUB>35</SUB>H<SUB>55</SUB>O<SUB>2</SUB>P", "idout": "ABzfYe", "mw": "538.80", "sample": [["Source:", "synthesized by the authors"], ["Initial purification:", "NMR (proton)"], ["Initial purity:", "99.2 mass %"], ["Final purification:", "Karl Fischer titration"], ["Final purity:", "0.15 water mass %"]]}], "dhead": [["Temperature, K", null], ["Pressure, kPa", null], ["Refractive index (Na D-line)", "Liquid"]], "footer": "", "data": [[["298.15"], ["101.325"], ["1.52282", "0.002"]], [["303.153"], ["101.325"], ["1.52109", "0.002"]], [["308.145"], ["101.325"], ["1.51952", "0.002"]], [["313.155"], ["101.325"], ["1.51802", "0.002"]], [["318.154"], ["101.325"], ["1.5162", "0.002"]], [["323.135"], ["101.325"], ["1.51461", "0.002"]], [["328.131"], ["101.325"], ["1.51299", "0.002"]], [["333.148"], ["101.325"], ["1.5112", "0.002"]], [["338.172"], ["101.325"], ["1.50949", "0.002"]], [["343.164"], ["101.325"], ["1.50758", "0.002"]]], "solvent": null, "expmeth": "Standard Abbe refractometry", "constr": [], "ref": {"full": "Wu, X.-L.; Sang, X.-Y.; Li, Z.-M.; Tao, D.-J. (2020) J. Mol. Liq. 312, 113405.", "title": "Study on physicochemical properties and basicity of carbanion-functionalized ionic liquids"}, "phases": ["Liquid"]}