{"title": "Refraction, surface tension, and speed of sound: Refractive index (Na D-line)", "components": [{"sample": [["Source:", "commercial source"], ["Initial purification:", "stated by supplier"], ["Initial purity:", "98 mass %"], ["Final purification:", "Karl Fischer titration"], ["Final purity:", "0.05 water mass %(de-gassed by freezing and melting in vacuum)"]], "idout": "AAwHNg", "mw": "250.31", "name": "1-butyl-3-methylimidazolium methyl sulfate", "formula": "C<SUB>9</SUB>H<SUB>18</SUB>N<SUB>2</SUB>O<SUB>4</SUB>S"}], "dhead": [["Temperature, K", null], ["Pressure, kPa", null], ["Refractive index (Na D-line)", "Liquid"]], "footer": "", "data": [[["303.15"], ["101.325"], ["1.47809", "0.0011"]], [["313.15"], ["101.325"], ["1.47532", "0.0011"]], [["323.15"], ["101.325"], ["1.47261", "0.0011"]], [["333.15"], ["101.325"], ["1.46998", "0.0011"]]], "solvent": null, "expmeth": "Standard Abbe refractometry", "constr": [], "ref": {"title": "Solubilities of Carbon Dioxide and Oxygen in the Ionic Liquids Methyl Trioctyl Ammonium Bis(trifluoromethylsulfonyl)imide, 1.Butyl-3-Methyl Imidazolium Bis(trifluoromethylsulfonyl)imide, and 1.Butyl-3-Methyl Imidazolium Methyl Sulfate", "full": "Bahadur, I.; Osman, K.; Coquelet, C.; Naidoo, P.; Ramjugernath, D. (2015) J. Phys. Chem. B 119, 1503-1514."}, "phases": ["Liquid"]}