{"phases": ["Liquid"], "ref": {"title": "Extractions of Alkaloids Codeine and Caffeine with [Bmim][BF4]/Carbohydrate Aqueous Biphasic Systems as a Novel Class of Liquid-Liquid Extraction Systems", "full": "Jamehbozorg, Bahman; Sadeghi, Rahmat (2019) J. Chem. Eng. Data 64(3), 916-925."}, "constr": [], "expmeth": "Standard Abbe refractometry", "data": [[["0"], ["298.15"], ["84.5"], ["0.02"], ["1.33393", "0.00058"]], [["0.0045"], ["298.15"], ["84.5"], ["0.02"], ["1.33456", "0.00081"]], [["0.0092"], ["298.15"], ["84.5"], ["0.02"], ["1.33521", "0.00081"]], [["0.0169"], ["298.15"], ["84.5"], ["0.02"], ["1.33629", "0.00081"]], [["0.0391"], ["298.15"], ["84.5"], ["0.02"], ["1.33944", "0.00082"]], [["0.0734"], ["298.15"], ["84.5"], ["0.02"], ["1.34448", "0.00083"]], [["0.0991"], ["298.15"], ["84.5"], ["0.02"], ["1.34831", "0.00083"]], [["0.1209"], ["298.15"], ["84.5"], ["0.02"], ["1.35154", "0.00084"]], [["0.1373"], ["298.15"], ["84.5"], ["0.02"], ["1.35412", "0.00086"]], [["0.1635"], ["298.15"], ["84.5"], ["0.02"], ["1.35821", "0.00086"]], [["0.1862"], ["298.15"], ["84.5"], ["0.02"], ["1.3618", "0.00086"]]], "solvent": "1-butyl-3-methylimidazolium tetrafluoroborate + water", "footer": "", "dhead": [["Weight fraction of D-fructose", "Liquid"], ["Temperature, K", null], ["Pressure, kPa", null], ["Solvent: Weight fraction of 1-butyl-3-methylimidazolium tetrafluoroborate", "Liquid"], ["Refractive index (Na D-line)", "Liquid"]], "components": [{"name": "1-butyl-3-methylimidazolium tetrafluoroborate", "formula": "C<SUB>8</SUB>H<SUB>15</SUB>BF<SUB>4</SUB>N<SUB>2</SUB>", "idout": "AArYBF", "mw": "226.03", "sample": [["Source:", "synthesized by the authors"], ["Purification:", "NMR (proton)"], ["Purity:", "98 mass %"]]}, {"name": "D-fructose", "formula": "C<SUB>6</SUB>H<SUB>12</SUB>O<SUB>6</SUB>", "idout": "AAihrA", "mw": "180.16", "sample": [["Source:", "commercial source"], ["Purification:", "stated by supplier"], ["Purity:", "99 mass %"]]}, {"formula": "H<SUB>2</SUB>O", "name": "water", "mw": "18.02", "idout": "AADYJk", "sample": [["Source:", "commercial source"], ["Purification:", "estimated by the compiler"], ["Purity:", "99.9 mass %"]]}], "title": "Refraction, surface tension, and speed of sound: Refractive index (Na D-line)"}