{"constr": [], "ref": {"title": "Study of solvation consequences of  alpha-amino acids in aqueous ionicliquid solution probed by physicochemical approach", "full": "Roy, M. N.; De, P.; Sikdar, P. S. (2013) Fluid Phase Equilib. 352, 7-13."}, "phases": ["Liquid"], "dhead": [["Weight fraction of tetrabutylphosphonium tetrafluoroborate", "Liquid"], ["Temperature, K", null], ["Pressure, kPa", null], ["Wavelength, A", "Liquid"], ["Refractive index", "Liquid"]], "components": [{"mw": "346.24", "idout": "ABOejo", "formula": "C<SUB>16</SUB>H<SUB>36</SUB>BF<SUB>4</SUB>P", "name": "tetrabutylphosphonium tetrafluoroborate", "sample": [["Source:", "commercial source"], ["Initial purification:", "stated by supplier"], ["Initial purity:", "98 mass %"], ["Final purification:", "not known"], ["Final purity:", "99 mol %(purification method described elsewhere)"]]}, {"sample": [["Source:", "commercial source"], ["Purification:", "estimated by the compiler"], ["Purity:", "99.9 mass %(fractional distillation)"]], "idout": "AADYJk", "mw": "18.02", "name": "water", "formula": "H<SUB>2</SUB>O"}], "title": "Refraction, surface tension, and speed of sound: Refractive index", "expmeth": "Digital Refractometer Mettler Toledo", "data": [[["0.001"], ["298.15"], ["100"], ["589.3"], ["1.3326", "0.0011"]], [["0.003"], ["298.15"], ["100"], ["589.3"], ["1.3333", "0.0011"]], [["0.005"], ["298.15"], ["100"], ["589.3"], ["1.3341", "0.0011"]]], "solvent": null, "footer": ""}