{"title": "Refraction, surface tension, and speed of sound: Refractive index (Na D-line)", "components": [{"sample": [["Source:", "commercial source"], ["Initial purification:", "stated by supplier"], ["Initial purity:", "99 mass %"], ["Final purification:", "Karl Fischer titration"], ["Final purity:", "0.30 water mass %(molecular sieve treatment)"]], "name": "N-methylpyrrolidone", "formula": "C<SUB>5</SUB>H<SUB>9</SUB>NO", "mw": "99.13", "idout": "AATDtI"}, {"sample": [["Source:", "commercial source"], ["Initial purification:", "estimated by the compiler"], ["Initial purity:", "99 mass %"], ["Final purification:", "Karl Fischer titration"], ["Final purity:", "0.30 water mass %(de-gassed by boiling or ultrasonically;dried by vacuum heating)"]], "formula": "C<SUB>12</SUB>H<SUB>23</SUB>ClN<SUB>2</SUB>", "name": "1-methyl-3-octylimidazolium chloride", "idout": "AAsTjr", "mw": "230.78"}], "dhead": [["Temperature, K", null], ["Mole fraction of 1-methyl-3-octylimidazolium chloride", "Liquid"], ["Pressure, kPa", null], ["Refractive index (Na D-line)", "Liquid"]], "footer": "", "data": [[["288.15"], ["0"], ["100"], ["1.47276", "0.00037"]], [["288.15"], ["0.0915"], ["100"], ["1.48161", "0.00038"]], [["288.15"], ["0.1857"], ["100"], ["1.48772", "0.00038"]], [["288.15"], ["0.2805"], ["100"], ["1.49359", "0.00037"]], [["288.15"], ["0.3657"], ["100"], ["1.49762", "0.00037"]], [["288.15"], ["0.4679"], ["100"], ["1.50098", "0.00037"]], [["288.15"], ["0.57"], ["100"], ["1.5037", "0.00037"]], [["288.15"], ["0.6779"], ["100"], ["1.50593", "0.00037"]], [["288.15"], ["0.79"], ["100"], ["1.50791", "0.00037"]], [["288.15"], ["0.8959"], ["100"], ["1.50953", "0.00037"]], [["288.15"], ["1"], ["100"], ["1.5089", "0.00037"]], [["293.15"], ["0"], ["100"], ["1.47053", "0.00037"]], [["293.15"], ["0.0915"], ["100"], ["1.47958", "0.00038"]], [["293.15"], ["0.1857"], ["100"], ["1.48578", "0.00038"]], [["293.15"], ["0.2805"], ["100"], ["1.49171", "0.00037"]], [["293.15"], ["0.3657"], ["100"], ["1.49585", "0.00037"]], [["293.15"], ["0.4679"], ["100"], ["1.49924", "0.00037"]], [["293.15"], ["0.57"], ["100"], ["1.502", "0.00037"]], [["293.15"], ["0.6779"], ["100"], ["1.50426", "0.00037"]], [["293.15"], ["0.79"], ["100"], ["1.50627", "0.00037"]], [["293.15"], ["0.8959"], ["100"], ["1.50792", "0.00037"]], [["293.15"], ["1"], ["100"], ["1.50774", "0.00037"]], [["298.15"], ["0"], ["100"], ["1.46837", "0.00037"]], [["298.15"], ["0.0915"], ["100"], ["1.47752", "0.00038"]], [["298.15"], ["0.1857"], ["100"], ["1.48384", "0.00038"]], [["298.15"], ["0.2805"], ["100"], ["1.48984", "0.00037"]], [["298.15"], ["0.3657"], ["100"], ["1.49405", "0.00037"]], [["298.15"], ["0.4679"], ["100"], ["1.49747", "0.00037"]], [["298.15"], ["0.57"], ["100"], ["1.50029", "0.00037"]], [["298.15"], ["0.6779"], ["100"], ["1.50258", "0.00037"]], [["298.15"], ["0.79"], ["100"], ["1.50464", "0.00037"]], [["298.15"], ["0.8959"], ["100"], ["1.50633", "0.00037"]], [["298.15"], ["1"], ["100"], ["1.50618", "0.00037"]], [["303.15"], ["0"], ["100"], ["1.46617", "0.00037"]], [["303.15"], ["0.0915"], ["100"], ["1.47546", "0.00038"]], [["303.15"], ["0.1857"], ["100"], ["1.48203", "0.00038"]], [["303.15"], ["0.2805"], ["100"], ["1.48799", "0.00037"]], [["303.15"], ["0.3657"], ["100"], ["1.49224", "0.00037"]], [["303.15"], ["0.4679"], ["100"], ["1.49571", "0.00037"]], [["303.15"], ["0.57"], ["100"], ["1.49859", "0.00037"]], [["303.15"], ["0.6779"], ["100"], ["1.50091", "0.00037"]], [["303.15"], ["0.79"], ["100"], ["1.50301", "0.00037"]], [["303.15"], ["0.8959"], ["100"], ["1.50475", "0.00037"]], [["303.15"], ["1"], ["100"], ["1.50501", "0.00037"]], [["308.15"], ["0"], ["100"], ["1.46403", "0.00037"]], [["308.15"], ["0.0915"], ["100"], ["1.47344", "0.00038"]], [["308.15"], ["0.1857"], ["100"], ["1.48028", "0.00038"]], [["308.15"], ["0.2805"], ["100"], ["1.48617", "0.00037"]], [["308.15"], ["0.3657"], ["100"], ["1.49044", "0.00037"]], [["308.15"], ["0.4679"], ["100"], ["1.49398", "0.00037"]], [["308.15"], ["0.57"], ["100"], ["1.49689", "0.00037"]], [["308.15"], ["0.6779"], ["100"], ["1.49935", "0.00037"]], [["308.15"], ["0.79"], ["100"], ["1.5014", "0.00037"]], [["308.15"], ["0.8959"], ["100"], ["1.50318", "0.00037"]], [["308.15"], ["1"], ["100"], ["1.50366", "0.00037"]], [["313.15"], ["0"], ["100"], ["1.46187", "0.00037"]], [["313.15"], ["0.0915"], ["100"], ["1.4714", "0.00038"]], [["313.15"], ["0.1857"], ["100"], ["1.4784", "0.00038"]], [["313.15"], ["0.2805"], ["100"], ["1.48435", "0.00037"]], [["313.15"], ["0.3657"], ["100"], ["1.48866", "0.00037"]], [["313.15"], ["0.4679"], ["100"], ["1.49226", "0.00037"]], [["313.15"], ["0.57"], ["100"], ["1.4952", "0.00037"]], [["313.15"], ["0.6779"], ["100"], ["1.49767", "0.00037"]], [["313.15"], ["0.79"], ["100"], ["1.49978", "0.00037"]], [["313.15"], ["0.8959"], ["100"], ["1.5016", "0.00037"]], [["313.15"], ["1"], ["100"], ["1.5023", "0.00037"]], [["318.25"], ["0"], ["100"], ["1.4597", "0.00037"]], [["318.25"], ["0.0915"], ["100"], ["1.46939", "0.00038"]], [["318.25"], ["0.1857"], ["100"], ["1.4765", "0.00038"]], [["318.25"], ["0.2805"], ["100"], ["1.48264", "0.00037"]], [["318.25"], ["0.3657"], ["100"], ["1.48686", "0.00037"]], [["318.25"], ["0.4679"], ["100"], ["1.49055", "0.00037"]], [["318.25"], ["0.57"], ["100"], ["1.49351", "0.00037"]], [["318.25"], ["0.6779"], ["100"], ["1.49609", "0.00037"]], [["318.25"], ["0.79"], ["100"], ["1.4982", "0.00037"]], [["318.25"], ["0.8959"], ["100"], ["1.50004", "0.00037"]], [["318.25"], ["1"], ["100"], ["1.50077", "0.00037"]], [["323.15"], ["0"], ["100"], ["1.45756", "0.00037"]], [["323.15"], ["0.0915"], ["100"], ["1.4674", "0.00038"]], [["323.15"], ["0.1857"], ["100"], ["1.47457", "0.00038"]], [["323.15"], ["0.2805"], ["100"], ["1.48099", "0.00037"]], [["323.15"], ["0.3657"], ["100"], ["1.48512", "0.00037"]], [["323.15"], ["0.4679"], ["100"], ["1.48876", "0.00037"]], [["323.15"], ["0.57"], ["100"], ["1.49187", "0.00037"]], [["323.15"], ["0.6779"], ["100"], ["1.49448", "0.00037"]], [["323.15"], ["0.79"], ["100"], ["1.49663", "0.00037"]], [["323.15"], ["0.8959"], ["100"], ["1.4985", "0.00037"]], [["323.15"], ["1"], ["100"], ["1.49937", "0.00037"]], [["328.15"], ["0"], ["100"], ["1.45554", "0.00037"]], [["328.15"], ["0.0915"], ["100"], ["1.46552", "0.00038"]], [["328.15"], ["0.1857"], ["100"], ["1.47293", "0.00038"]], [["328.15"], ["0.2805"], ["100"], ["1.47926", "0.00037"]], [["328.15"], ["0.3657"], ["100"], ["1.48336", "0.00037"]], [["328.15"], ["0.4679"], ["100"], ["1.4873", "0.00037"]], [["328.15"], ["0.57"], ["100"], ["1.49024", "0.00037"]], [["328.15"], ["0.6779"], ["100"], ["1.49297", "0.00037"]], [["328.15"], ["0.79"], ["100"], ["1.49524", "0.00037"]], [["328.15"], ["0.8959"], ["100"], ["1.49716", "0.00037"]], [["328.15"], ["1"], ["100"], ["1.49816", "0.00037"]], [["333.15"], ["0"], ["100"], ["1.4535", "0.00037"]], [["333.15"], ["0.0915"], ["100"], ["1.46359", "0.00038"]], [["333.15"], ["0.1857"], ["100"], ["1.4714", "0.00038"]], [["333.15"], ["0.2805"], ["100"], ["1.47751", "0.00037"]], [["333.15"], ["0.3657"], ["100"], ["1.48164", "0.00037"]], [["333.15"], ["0.4679"], ["100"], ["1.48587", "0.00037"]], [["333.15"], ["0.57"], ["100"], ["1.48862", "0.00037"]], [["333.15"], ["0.6779"], ["100"], ["1.4915", "0.00037"]], [["333.15"], ["0.79"], ["100"], ["1.49371", "0.00037"]], [["333.15"], ["0.8959"], ["100"], ["1.49589", "0.00037"]], [["333.15"], ["1"], ["100"], ["1.49651", "0.00037"]]], "solvent": null, "expmeth": "Standard Abbe refractometry", "constr": [], "ref": {"full": "Bai, L.; Li, S.-N.; Zhai, Q.-G.; Jiang, Y.-C.; Hu, M.-C. (2016) Chem. Eng. Commun. 203(7), 985-993.", "title": "Study of the Physicochemical and Excess Properties of Binary Systems Composed of Ionic Liquids ([Cnmim]Cl,n = 6, 8) and Three Dipolar Aprotic Solvents atT = 288.15-333.15 K"}, "phases": ["Liquid"]}