{"constr": [], "ref": {"full": "Bai, L.; Li, S.-N.; Zhai, Q.-G.; Jiang, Y.-C.; Hu, M.-C. (2016) Chem. Eng. Commun. 203(7), 985-993.", "title": "Study of the Physicochemical and Excess Properties of Binary Systems Composed of Ionic Liquids ([Cnmim]Cl,n = 6, 8) and Three Dipolar Aprotic Solvents atT = 288.15-333.15 K"}, "phases": ["Liquid"], "components": [{"sample": [["Source:", "commercial source"], ["Initial purification:", "estimated by the compiler"], ["Initial purity:", "99 mass %"], ["Final purification:", "Karl Fischer titration"], ["Final purity:", "0.30 water mass %(de-gassed by boiling or ultrasonically;dried by vacuum heating)"]], "idout": "AAmzKp", "mw": "202.73", "formula": "C<SUB>10</SUB>H<SUB>19</SUB>ClN<SUB>2</SUB>", "name": "1-hexyl-3-methylimidazolium chloride"}, {"sample": [["Source:", "commercial source"], ["Initial purification:", "stated by supplier"], ["Initial purity:", "99 mass %"], ["Final purification:", "Karl Fischer titration"], ["Final purity:", "0.30 water mass %(molecular sieve treatment)"]], "formula": "C<SUB>6</SUB>H<SUB>12</SUB>N<SUB>2</SUB>O", "name": "1,3-dimethyl-3,4,5,6-tetrahydro-2(1H)-pyrimidinone", "idout": "AAYhfK", "mw": "128.18"}], "title": "Refraction, surface tension, and speed of sound: Refractive index (Na D-line)", "dhead": [["Temperature, K", null], ["Mole fraction of 1-hexyl-3-methylimidazolium chloride", "Liquid"], ["Pressure, kPa", null], ["Refractive index (Na D-line)", "Liquid"]], "solvent": null, "data": [[["288.15"], ["0"], ["100"], ["1.49262", "0.00037"]], [["288.15"], ["0.1011"], ["100"], ["1.49881", "0.00037"]], [["288.15"], ["0.1987"], ["100"], ["1.50373", "0.00037"]], [["288.15"], ["0.3083"], ["100"], ["1.50837", "0.00037"]], [["288.15"], ["0.3981"], ["100"], ["1.51102", "0.00037"]], [["288.15"], ["0.4957"], ["100"], ["1.51384", "0.00037"]], [["288.15"], ["0.6008"], ["100"], ["1.51639", "0.00037"]], [["288.15"], ["0.6983"], ["100"], ["1.51809", "0.00037"]], [["288.15"], ["0.7961"], ["100"], ["1.51934", "0.00037"]], [["288.15"], ["0.8979"], ["100"], ["1.52042", "0.00037"]], [["288.15"], ["1"], ["100"], ["1.52121", "0.00037"]], [["293.15"], ["0"], ["100"], ["1.49007", "0.00037"]], [["293.15"], ["0.1011"], ["100"], ["1.49652", "0.00037"]], [["293.15"], ["0.1987"], ["100"], ["1.50175", "0.00037"]], [["293.15"], ["0.3083"], ["100"], ["1.50656", "0.00037"]], [["293.15"], ["0.3981"], ["100"], ["1.5093", "0.00037"]], [["293.15"], ["0.4957"], ["100"], ["1.51214", "0.00037"]], [["293.15"], ["0.6008"], ["100"], ["1.51472", "0.00037"]], [["293.15"], ["0.6983"], ["100"], ["1.51644", "0.00037"]], [["293.15"], ["0.7961"], ["100"], ["1.51778", "0.00037"]], [["293.15"], ["0.8979"], ["100"], ["1.51889", "0.00037"]], [["293.15"], ["1"], ["100"], ["1.51967", "0.00037"]], [["298.15"], ["0"], ["100"], ["1.48794", "0.00037"]], [["298.15"], ["0.1011"], ["100"], ["1.49445", "0.00037"]], [["298.15"], ["0.1987"], ["100"], ["1.49962", "0.00037"]], [["298.15"], ["0.3083"], ["100"], ["1.50446", "0.00037"]], [["298.15"], ["0.3981"], ["100"], ["1.5072", "0.00037"]], [["298.15"], ["0.4957"], ["100"], ["1.50999", "0.00037"]], [["298.15"], ["0.6008"], ["100"], ["1.51249", "0.00037"]], [["298.15"], ["0.6983"], ["100"], ["1.51417", "0.00037"]], [["298.15"], ["0.7961"], ["100"], ["1.51543", "0.00037"]], [["298.15"], ["0.8979"], ["100"], ["1.51645", "0.00037"]], [["298.15"], ["1"], ["100"], ["1.51714", "0.00037"]], [["303.15"], ["0"], ["100"], ["1.48586", "0.00037"]], [["303.15"], ["0.1011"], ["100"], ["1.49248", "0.00037"]], [["303.15"], ["0.1987"], ["100"], ["1.49777", "0.00037"]], [["303.15"], ["0.3083"], ["100"], ["1.50265", "0.00037"]], [["303.15"], ["0.3981"], ["100"], ["1.50553", "0.00037"]], [["303.15"], ["0.4957"], ["100"], ["1.50837", "0.00037"]], [["303.15"], ["0.6008"], ["100"], ["1.5109", "0.00037"]], [["303.15"], ["0.6983"], ["100"], ["1.51257", "0.00037"]], [["303.15"], ["0.7961"], ["100"], ["1.51386", "0.00037"]], [["303.15"], ["0.8979"], ["100"], ["1.51493", "0.00037"]], [["303.15"], ["1"], ["100"], ["1.51562", "0.00037"]], [["308.15"], ["0"], ["100"], ["1.48378", "0.00037"]], [["308.15"], ["0.1011"], ["100"], ["1.49048", "0.00037"]], [["308.15"], ["0.1987"], ["100"], ["1.49582", "0.00037"]], [["308.15"], ["0.3083"], ["100"], ["1.50084", "0.00037"]], [["308.15"], ["0.3981"], ["100"], ["1.5038", "0.00037"]], [["308.15"], ["0.4957"], ["100"], ["1.50671", "0.00037"]], [["308.15"], ["0.6008"], ["100"], ["1.50926", "0.00037"]], [["308.15"], ["0.6983"], ["100"], ["1.51096", "0.00037"]], [["308.15"], ["0.7961"], ["100"], ["1.5123", "0.00037"]], [["308.15"], ["0.8979"], ["100"], ["1.51338", "0.00037"]], [["308.15"], ["1"], ["100"], ["1.51411", "0.00037"]], [["313.15"], ["0"], ["100"], ["1.48173", "0.00037"]], [["313.15"], ["0.1011"], ["100"], ["1.48849", "0.00038"]], [["313.15"], ["0.1987"], ["100"], ["1.49395", "0.00037"]], [["313.15"], ["0.3083"], ["100"], ["1.49905", "0.00037"]], [["313.15"], ["0.3981"], ["100"], ["1.50214", "0.00037"]], [["313.15"], ["0.4957"], ["100"], ["1.50509", "0.00037"]], [["313.15"], ["0.6008"], ["100"], ["1.50766", "0.00037"]], [["313.15"], ["0.6983"], ["100"], ["1.50938", "0.00037"]], [["313.15"], ["0.7961"], ["100"], ["1.51073", "0.00037"]], [["313.15"], ["0.8979"], ["100"], ["1.51186", "0.00037"]], [["313.15"], ["1"], ["100"], ["1.51261", "0.00037"]], [["318.15"], ["0"], ["100"], ["1.47964", "0.00037"]], [["318.15"], ["0.1011"], ["100"], ["1.48652", "0.00038"]], [["318.15"], ["0.1987"], ["100"], ["1.49209", "0.00037"]], [["318.15"], ["0.3083"], ["100"], ["1.49729", "0.00037"]], [["318.15"], ["0.3981"], ["100"], ["1.50055", "0.00037"]], [["318.15"], ["0.4957"], ["100"], ["1.50347", "0.00037"]], [["318.15"], ["0.6008"], ["100"], ["1.50608", "0.00037"]], [["318.15"], ["0.6983"], ["100"], ["1.50785", "0.00037"]], [["318.15"], ["0.7961"], ["100"], ["1.50922", "0.00037"]], [["318.15"], ["0.8979"], ["100"], ["1.51039", "0.00037"]], [["318.15"], ["1"], ["100"], ["1.5111", "0.00037"]], [["323.15"], ["0"], ["100"], ["1.47776", "0.00037"]], [["323.15"], ["0.1011"], ["100"], ["1.48466", "0.00038"]], [["323.15"], ["0.1987"], ["100"], ["1.49027", "0.00037"]], [["323.15"], ["0.3083"], ["100"], ["1.49557", "0.00037"]], [["323.15"], ["0.3981"], ["100"], ["1.49891", "0.00037"]], [["323.15"], ["0.4957"], ["100"], ["1.50186", "0.00037"]], [["323.15"], ["0.6008"], ["100"], ["1.50453", "0.00037"]], [["323.15"], ["0.6983"], ["100"], ["1.50633", "0.00037"]], [["323.15"], ["0.7961"], ["100"], ["1.50775", "0.00037"]], [["323.15"], ["0.8979"], ["100"], ["1.50889", "0.00037"]], [["323.15"], ["1"], ["100"], ["1.50963", "0.00037"]], [["328.15"], ["0"], ["100"], ["1.47644", "0.00037"]], [["328.15"], ["0.1011"], ["100"], ["1.48325", "0.00037"]], [["328.15"], ["0.1987"], ["100"], ["1.48888", "0.00037"]], [["328.15"], ["0.3083"], ["100"], ["1.49436", "0.00037"]], [["328.15"], ["0.3981"], ["100"], ["1.49782", "0.00037"]], [["328.15"], ["0.4957"], ["100"], ["1.50073", "0.00037"]], [["328.15"], ["0.6008"], ["100"], ["1.50343", "0.00037"]], [["328.15"], ["0.6983"], ["100"], ["1.50521", "0.00037"]], [["328.15"], ["0.7961"], ["100"], ["1.50645", "0.00037"]], [["328.15"], ["0.8979"], ["100"], ["1.5076", "0.00037"]], [["328.15"], ["1"], ["100"], ["1.50829", "0.00037"]], [["333.15"], ["0"], ["100"], ["1.47492", "0.00037"]], [["333.15"], ["0.1011"], ["100"], ["1.4818", "0.00038"]], [["333.15"], ["0.1987"], ["100"], ["1.4875", "0.00037"]], [["333.15"], ["0.3083"], ["100"], ["1.49285", "0.00037"]], [["333.15"], ["0.3981"], ["100"], ["1.49641", "0.00037"]], [["333.15"], ["0.4957"], ["100"], ["1.49941", "0.00037"]], [["333.15"], ["0.6008"], ["100"], ["1.50211", "0.00037"]], [["333.15"], ["0.6983"], ["100"], ["1.50388", "0.00037"]], [["333.15"], ["0.7961"], ["100"], ["1.50521", "0.00037"]], [["333.15"], ["0.8979"], ["100"], ["1.50622", "0.00037"]], [["333.15"], ["1"], ["100"], ["1.50689", "0.00037"]]], "footer": "", "expmeth": "Standard Abbe refractometry"}