{"title": "Refraction, surface tension, and speed of sound: Refractive index (Na D-line)", "components": [{"sample": [["Source:", "commercial source"], ["Purification:", "stated by supplier"], ["Purity:", "99.6 mass %"], ["Purity analysis:", "dried by vacuum heating"]], "idout": "AAgnKZ", "mw": "170.34", "name": "dodecane", "formula": "C<SUB>12</SUB>H<SUB>26</SUB>"}, {"sample": [["Source:", "commercial source"], ["Purification:", "stated by supplier"], ["Purity:", "96 mass %"], ["Purity analysis:", "dried by vacuum heating"]], "idout": "AAmGMw", "mw": "198.28", "formula": "C<SUB>13</SUB>H<SUB>10</SUB>S", "name": "4-methyldibenzothiophene"}, {"sample": [["Source:", "commercial source"], ["Initial purification:", "stated by supplier"], ["Initial purity:", "98 mass %"], ["Final purification:", "Karl Fischer titration"], ["Final purity:", "0.05 water mass %(dried by vacuum heating)"]], "mw": "264.26", "idout": "AAyqRj", "formula": "C<SUB>10</SUB>H<SUB>21</SUB>N<SUB>2</SUB>O<SUB>4</SUB>P", "name": "1-ethyl-3-methylimidazolium diethyl phosphate"}], "dhead": [["Temperature, K", null], ["Weight fraction of 1-ethyl-3-methylimidazolium diethyl phosphate", "Liquid"], ["Weight fraction of 4-methyldibenzothiophene", "Liquid"], ["Pressure, kPa", null], ["Refractive index (Na D-line)", "Liquid"]], "footer": "", "data": [[["298.1"], ["0.9096"], ["0.0808"], ["101"], ["1.4905", "0.0008"]], [["298.1"], ["0.9312"], ["0.0627"], ["101"], ["1.4852", "0.0008"]], [["298.1"], ["0.9522"], ["0.0434"], ["101"], ["1.4812", "0.0008"]], [["298.1"], ["0.9736"], ["0.0225"], ["101"], ["1.477", "0.0008"]], [["298.1"], ["0.9967"], ["0"], ["101"], ["1.4724", "0.0008"]], [["313"], ["0.9022"], ["0.0888"], ["101"], ["1.4866", "0.0006"]], [["313"], ["0.9269"], ["0.0663"], ["101"], ["1.4819", "0.0006"]], [["313"], ["0.9486"], ["0.0446"], ["101"], ["1.4775", "0.0006"]], [["313"], ["0.9731"], ["0.0226"], ["101"], ["1.4728", "0.0006"]], [["313"], ["0.9951"], ["0"], ["101"], ["1.4685", "0.0006"]]], "solvent": null, "expmeth": "Standard Abbe refractometry", "ref": {"full": "Oliveira, L. H. d.; Aznar, M. (2010) Ind. Eng. Chem. Res. 49, 9462-9468.", "title": "Liquid-Liquid Equilibrium Data in Ionic Liquid + 4-Methyldibenzothiophene + n-Dodecane Systems"}, "constr": [], "phases": ["Liquid"]}