{"ref": {"full": "Al-Rahed, M. H.; Alkhaldi, K. H. A. E.; Al-Tuwaim, M. S.; Fandary, M. S.; Al-Jimaz, A. S. (2012) J. Chem. Eng. Data 57(11), 2907-2914.", "title": "Extraction of Butylbenzene from Dodecane Using Hexafluorophosphate-Based Ionic Liquids: Effect of Cation Change"}, "constr": [], "phases": ["Liquid"], "components": [{"sample": [["Source:", "commercial source"], ["Initial purification:", "stated by supplier"], ["Initial purity:", "98 mass %"], ["Final purification:", "Karl Fischer titration"], ["Final purity:", "0.06 water mass %(molecular sieve treatment)"]], "mw": "284.19", "idout": "ABChJv", "name": "1-butyl-3-methylimidazolium hexafluorophosphate", "formula": "C<SUB>8</SUB>H<SUB>15</SUB>F<SUB>6</SUB>N<SUB>2</SUB>P"}], "title": "Refraction, surface tension, and speed of sound: Refractive index (Na D-line)", "dhead": [["Temperature, K", null], ["Pressure, kPa", null], ["Refractive index (Na D-line)", "Liquid"]], "solvent": null, "data": [[["293.1"], ["101.325"], ["1.4101", "0.0008"]]], "footer": "", "expmeth": "Standard Abbe refractometry"}