{"components": [{"sample": [["Source:", "commercial source"], ["Purification:", "stated by supplier"], ["Initial purity:", "97 mass %"], ["Final purity:", "0.135 water mass %(dried by vacuum heating)"]], "formula": "C<SUB>12</SUB>H<SUB>19</SUB>N<SUB>5</SUB>", "name": "1-hexyl-3-methylimidazolium dicyanamide", "mw": "233.32", "idout": "AAstlh"}], "title": "Refraction, surface tension, and speed of sound: Refractive index (Na D-line)", "dhead": [["Temperature, K", null], ["Pressure, kPa", null], ["Refractive index (Na D-line)", "Liquid"]], "data": [[["293.15"], ["101.325"], ["1.50573", "0.00074"]], [["298.15"], ["101.325"], ["1.50419", "0.00074"]], [["303.15"], ["101.325"], ["1.5026", "0.00075"]], [["308.15"], ["101.325"], ["1.50102", "0.00075"]], [["313.15"], ["101.325"], ["1.49943", "0.00075"]], [["318.15"], ["101.325"], ["1.49772", "0.00076"]], [["323.15"], ["101.325"], ["1.49599", "0.00076"]], [["328.15"], ["101.325"], ["1.49431", "0.00075"]], [["333.15"], ["101.325"], ["1.49273", "0.00075"]], [["338.15"], ["101.325"], ["1.49113", "0.00074"]], [["343.15"], ["101.325"], ["1.48962", "0.00074"]]], "solvent": null, "footer": "", "expmeth": "Standard Abbe refractometry", "ref": {"full": "Seoane, R. G.; Corderi, S.; Gomez, E.; Calvar, N.; Gonzalez, E. J.; Macedo, E. A.; Dominguez, A. (2012) Ind. Eng. Chem. Res. 51, 2492-2504.", "title": "Temperature Dependence and Structural Influence on the Thermophysical Properties of Eleven Commercial Ionic Liquids"}, "constr": [], "phases": ["Liquid"]}