{"ref": {"title": "Temperature Dependence of Physicochemical Properties of Imidazolium-, Pyroldinium-, and Phosphonium-Based Ionic Liquids", "full": "AlTuwaim, M. S.; Alkhaldi, K. H. A. E.; Al-Jimaz, A. S.; Mohammad, A. A. (2014) J. Chem. Eng. Data 59(6), 1955-1963."}, "constr": [], "phases": ["Liquid"], "components": [{"name": "1-butyl-4-methylpyridinium tetrafluoroborate", "formula": "C<SUB>10</SUB>H<SUB>16</SUB>BF<SUB>4</SUB>N", "mw": "237.05", "idout": "AAtevY", "sample": [["Source:", "commercial source"], ["Purification:", "stated by supplier"], ["Purity:", "97 % (basis not specified)"]]}], "title": "Refraction, surface tension, and speed of sound: Refractive index (Na D-line)", "dhead": [["Temperature, K", null], ["Pressure, kPa", null], ["Refractive index (Na D-line)", "Liquid"]], "data": [[["298.15"], ["101.325"], ["1.4507", "0.001"]], [["303.15"], ["101.325"], ["1.4502", "0.001"]], [["308.15"], ["101.325"], ["1.4495", "0.001"]], [["313.15"], ["101.325"], ["1.4488", "0.001"]], [["318.15"], ["101.325"], ["1.4482", "0.001"]], [["323.15"], ["101.325"], ["1.4475", "0.001"]], [["328.15"], ["101.325"], ["1.4469", "0.001"]], [["333.15"], ["101.325"], ["1.4463", "0.001"]]], "solvent": null, "footer": "", "expmeth": "Standard Abbe refractometry"}