{"dhead": [["Temperature, K", null], ["Mole ratio to solvent: 3-amino-1-propanol", "Liquid"], ["Pressure, kPa", null], ["Refractive index (Na D-line)", "Liquid"]], "components": [{"name": "3-amino-1-propanol", "formula": "C<SUB>3</SUB>H<SUB>9</SUB>NO", "mw": "75.11", "idout": "AAOXbF", "sample": [["Source:", "commercial source"], ["Purification:", "stated by supplier"], ["Purity:", "99 mass %"]]}, {"mw": "165.71", "idout": "AAftPF", "formula": "C<SUB>8</SUB>H<SUB>20</SUB>ClN", "name": "tetraethylammonium chloride", "sample": [["Source:", "commercial source"], ["Purification:", "stated by supplier"], ["Purity:", "98 mass %"]]}], "title": "Refraction, surface tension, and speed of sound: Refractive index (Na D-line)", "expmeth": "Standard Abbe refractometry", "data": [[["293.15"], ["4"], ["101.3"], ["1.4786", "0.0012"]], [["293.15"], ["6"], ["101.3"], ["1.4733", "0.0012"]], [["293.15"], ["8"], ["101.3"], ["1.4717", "0.0009"]], [["298.15"], ["4"], ["101.3"], ["1.477", "0.0012"]], [["298.15"], ["6"], ["101.3"], ["1.4719", "0.0012"]], [["298.15"], ["8"], ["101.3"], ["1.4697", "0.001"]], [["303.15"], ["4"], ["101.3"], ["1.4751", "0.0011"]], [["303.15"], ["6"], ["101.3"], ["1.4703", "0.0012"]], [["303.15"], ["8"], ["101.3"], ["1.4678", "0.0011"]], [["308.15"], ["4"], ["101.3"], ["1.4732", "0.0011"]], [["308.15"], ["6"], ["101.3"], ["1.4688", "0.0012"]], [["308.15"], ["8"], ["101.3"], ["1.4662", "0.0012"]], [["313.15"], ["4"], ["101.3"], ["1.4713", "0.0011"]], [["313.15"], ["6"], ["101.3"], ["1.467", "0.0012"]], [["313.15"], ["8"], ["101.3"], ["1.4644", "0.0012"]], [["318.15"], ["4"], ["101.3"], ["1.4697", "0.001"]], [["318.15"], ["6"], ["101.3"], ["1.4653", "0.0012"]], [["318.15"], ["8"], ["101.3"], ["1.4627", "0.0012"]], [["323.15"], ["4"], ["101.3"], ["1.468", "0.001"]], [["323.15"], ["6"], ["101.3"], ["1.4638", "0.0012"]], [["323.15"], ["8"], ["101.3"], ["1.4608", "0.0013"]], [["328.15"], ["4"], ["101.3"], ["1.4665", "0.001"]], [["328.15"], ["6"], ["101.3"], ["1.4622", "0.0012"]], [["328.15"], ["8"], ["101.3"], ["1.4592", "0.0013"]], [["333.15"], ["4"], ["101.3"], ["1.4647", "0.0011"]], [["333.15"], ["6"], ["101.3"], ["1.4602", "0.0012"]], [["333.15"], ["8"], ["101.3"], ["1.4576", "0.0012"]]], "solvent": "tetraethylammonium chloride", "footer": "", "ref": {"title": "Experimental and predicted physicochemical properties of monopropanolamine-based deep eutectic solvents", "full": "Nowosielski, B.; Jamrgiewicz, M.; uczak, J.; miechowski, M.; Warmiska, D. (2020) J. Mol. Liq. 309, 113110."}, "constr": [], "phases": ["Liquid"]}