{"phases": ["Liquid"], "ref": {"full": "Hwang, I.-C.; Kwon, R.-H.; Park, S.-J. (2013) Fluid Phase Equilib. 344, 32-37.", "title": "Azeotrope breaking for the system ethyl tert-butyl ether (ETBE) + ethanol at 313.15 K and excess properties at 298.15 K for mixtures of ETBE and ethanol with phosphonium-based ionic liquids"}, "constr": [], "expmeth": "Standard Abbe refractometry", "data": [[["298.15"], ["101.325"], ["1.48175", "0.00039"]]], "solvent": null, "footer": "", "dhead": [["Temperature, K", null], ["Pressure, kPa", null], ["Refractive index (Na D-line)", "Liquid"]], "components": [{"mw": "519.32", "idout": "ABvtRE", "name": "trihexyl(tetradecyl)phosphonium chloride", "formula": "C<SUB>32</SUB>H<SUB>68</SUB>ClP", "sample": [["Source:", "commercial source"], ["Initial purification:", "gas chromatography"], ["Initial purity:", "99 mol %"], ["Final purification:", "Karl Fischer titration"], ["Final purity:", "0.06 water mass %"]]}], "title": "Refraction, surface tension, and speed of sound: Refractive index (Na D-line)"}