{"expmeth": "Standard Abbe refractometry", "footer": "", "data": [[["298.2"], ["0.0004"], ["95"], ["1.4729", "0.0008"]], [["298.2"], ["0.0011"], ["95"], ["1.473", "0.0008"]], [["298.2"], ["0.0017"], ["95"], ["1.4731", "0.0008"]], [["313.2"], ["0.0023"], ["95"], ["1.4687", "0.0006"]], [["313.2"], ["0.0041"], ["95"], ["1.469", "0.0006"]], [["313.2"], ["0.0053"], ["95"], ["1.4693", "0.0006"]]], "solvent": null, "dhead": [["Temperature, K", null], ["Mole fraction of 4,6-dimethyldibenzo[b,d]thiophene", "Liquid mixture 1"], ["Pressure, kPa", null], ["Refractive index (Na D-line)", "Liquid mixture 1"]], "title": "Refraction, surface tension, and speed of sound: Refractive index (Na D-line)", "components": [{"sample": [["Source:", "commercial source"], ["Purification:", "stated by supplier"], ["Purity:", "99.6 % (basis not specified)"]], "idout": "AAgnKZ", "mw": "170.34", "formula": "C<SUB>12</SUB>H<SUB>26</SUB>", "name": "dodecane"}, {"idout": "AAoryz", "mw": "212.31", "formula": "C<SUB>14</SUB>H<SUB>12</SUB>S", "name": "4,6-dimethyldibenzo[b,d]thiophene", "sample": [["Source:", "commercial source"], ["Purification:", "stated by supplier"], ["Purity:", "97 % (basis not specified)"]]}, {"sample": [["Source:", "commercial source"], ["Initial purification:", "stated by supplier"], ["Initial purity:", "98 % (basis not specified)"], ["Final purification:", "Karl Fischer titration"], ["Final purity:", "0.05 water mass %"]], "formula": "C<SUB>10</SUB>H<SUB>21</SUB>N<SUB>2</SUB>O<SUB>4</SUB>P", "name": "1-ethyl-3-methylimidazolium diethyl phosphate", "mw": "264.26", "idout": "AAyqRj"}], "phases": ["Liquid mixture 1", "Liquid mixture 2"], "constr": [], "ref": {"full": "Oliveira, L. H. d.; Aznar, M. (2011) J. Chem. Eng. Data 56(5), 2005-2012.", "title": "Liquid-Liquid Equilibria for {1-Ethyl-3-methylimidazolium Diethylphosphate or 1-Ethyl-3-methylimidazolium Ethylsulfate} + 4,6-Dimethyldibenzothiophene + Dodecane Systems at 298.2 K and 313.2 K  "}}