{"ref": {"title": "Estimation of Properties of Ionic Liquids 1-Alkyl-3-methylimidazolium Lactate Using a Semiempirical Method", "full": "Tong, J.; Hong, M.; Liu, C.; Sun, A.; Guan, W.; Yang, J. -Z. (2013) Ind. Eng. Chem. Res. 52, 4967-4972."}, "constr": [], "phases": ["Liquid"], "components": [{"sample": [["Source:", "synthesized by the authors"], ["Purification:", "estimated by the compiler"], ["Purity:", "98 mass %(dried by vacuum heating)"]], "idout": "AAufur", "mw": "242.32", "name": "1-pentyl-3-methylimidazolium lactate", "formula": "C<SUB>12</SUB>H<SUB>22</SUB>N<SUB>2</SUB>O<SUB>3</SUB>"}], "title": "Refraction, surface tension, and speed of sound: Refractive index (Na D-line)", "dhead": [["Temperature, K", null], ["Pressure, kPa", null], ["Refractive index (Na D-line)", "Liquid"]], "data": [[["298.15"], ["101.325"], ["1.4915", "0.0005"]]], "solvent": null, "footer": "", "expmeth": "Standard Abbe refractometry"}