{"ref": {"full": "Kaneko, K.; Yoshimura, Y.; Shimizu, A. (2018) J. Mol. Liq. 250, 283-286.", "title": "Water concentration dependence of the refractive index of various ionic liquid-water mixtures"}, "constr": [], "phases": ["Liquid"], "title": "Refraction, surface tension, and speed of sound: Refractive index (Na D-line)", "components": [{"sample": [["Source:", "commercial source"], ["Initial purification:", "stated by supplier"], ["Initial purity:", "97 mass %"], ["Final purification:", "NMR (proton)"], ["Final purity:", "0.0283 water mass %(de-gassed by evacuation;dried by vacuum heating)"]], "name": "ethylammonium nitrate", "formula": "C<SUB>2</SUB>H<SUB>8</SUB>N<SUB>2</SUB>O<SUB>3</SUB>", "idout": "AAUohR", "mw": "108.10"}, {"formula": "H<SUB>2</SUB>O", "name": "water", "idout": "AADYJk", "mw": "18.02", "sample": [["Source:", "commercial source"], ["Purification:", "estimated by the compiler"], ["Purity:", "99.9 mass %"]]}], "dhead": [["Mole fraction of ethylammonium nitrate", "Liquid"], ["Pressure, kPa", null], ["Temperature, K", null], ["Refractive index (Na D-line)", "Liquid"]], "footer": "", "data": [[["0"], ["100"], ["293"], ["1.3333", "0.0005"]], [["0.001"], ["100"], ["293"], ["1.3338", "0.0005"]], [["0.004"], ["100"], ["293"], ["1.3358", "0.0005"]], [["0.007"], ["100"], ["293"], ["1.3378", "0.0005"]], [["0.01"], ["100"], ["293"], ["1.3399", "0.0005"]], [["0.016"], ["100"], ["293"], ["1.3435", "0.0005"]], [["0.033"], ["100"], ["293"], ["1.3528", "0.0005"]], [["0.05"], ["100"], ["293"], ["1.3615", "0.0005"]], [["0.08"], ["100"], ["293"], ["1.374", "0.0005"]], [["0.097"], ["100"], ["293"], ["1.3801", "0.0005"]], [["0.131"], ["100"], ["293"], ["1.3901", "0.0005"]], [["0.154"], ["100"], ["293"], ["1.396", "0.0005"]], [["0.185"], ["100"], ["293"], ["1.4029", "0.0005"]], [["0.213"], ["100"], ["293"], ["1.4078", "0.0005"]], [["0.246"], ["100"], ["293"], ["1.4133", "0.0006"]], [["0.289"], ["100"], ["293"], ["1.4189", "0.0006"]], [["0.348"], ["100"], ["293"], ["1.4255", "0.0006"]], [["0.402"], ["100"], ["293"], ["1.4301", "0.0006"]], [["0.586"], ["100"], ["293"], ["1.4415", "0.0006"]], [["0.739"], ["100"], ["293"], ["1.4475", "0.0007"]], [["1"], ["100"], ["293"], ["1.4531", "0.0008"]]], "solvent": null, "expmeth": "Standard Abbe refractometry"}