{"phases": ["Liquid"], "ref": {"title": "Asymmetric criticality of ionic solution containing 1-hexyl-3-methylimidazolium tetrafluoroborate and 2-propanol", "full": "Zhang, X.; Xu, C.; Zheng, P.; Yin, T.; Shen, W. (2016) J. Chem. Thermodyn. 100, 116-123."}, "constr": [], "expmeth": "Minimum deviation angle method", "solvent": null, "data": [[["279.705"], ["82"], ["632.8"], ["1.4316", "0.0003"]], [["281.353"], ["82"], ["632.8"], ["1.4311", "0.0003"]], [["283.005"], ["82"], ["632.8"], ["1.4307", "0.0003"]], [["284.648"], ["82"], ["632.8"], ["1.4303", "0.0003"]], [["286.268"], ["82"], ["632.8"], ["1.4298", "0.0003"]], [["287.911"], ["82"], ["632.8"], ["1.4294", "0.0003"]], [["289.625"], ["82"], ["632.8"], ["1.4289", "0.0003"]], [["291.193"], ["82"], ["632.8"], ["1.4285", "0.0003"]]], "footer": "", "dhead": [["Temperature, K", null], ["Pressure, kPa", null], ["Wavelength, A", "Liquid"], ["Refractive index", "Liquid"]], "components": [{"idout": "AAwscj", "mw": "254.08", "name": "1-hexyl-3-methylimidazolium tetrafluoroborate", "formula": "C<SUB>10</SUB>H<SUB>19</SUB>BF<SUB>4</SUB>N<SUB>2</SUB>", "sample": [["Source:", "commercial source"], ["Initial purification:", "stated by supplier"], ["Initial purity:", "99 mass %"], ["Final purification:", "Karl Fischer titration"], ["Final purity:", "0.0058 water mass %(dried in a desiccator;dried by vacuum heating)"]]}], "title": "Refraction, surface tension, and speed of sound: Refractive index"}