{"title": "Refraction, surface tension, and speed of sound: Refractive index (Na D-line)", "components": [{"mw": "170.21", "idout": "AAgmaR", "name": "1-ethyl-3-methylimidazolium acetate", "formula": "C<SUB>8</SUB>H<SUB>14</SUB>N<SUB>2</SUB>O<SUB>2</SUB>", "sample": [["Source:", "commercial source"], ["Initial purification:", "stated by supplier"], ["Initial purity:", "98 mass %"], ["Final purification:", "Karl Fischer titration"], ["Final purity:", "0.02 water mass %"]]}], "dhead": [["Temperature, K", null], ["Pressure, kPa", null], ["Refractive index (Na D-line)", "Liquid"]], "footer": "", "data": [[["298.15"], ["100"], ["1.49971", "0.00055"]], [["303.15"], ["100"], ["1.49833", "0.00055"]], [["308.15"], ["100"], ["1.49693", "0.00055"]], [["313.15"], ["100"], ["1.49551", "0.00055"]], [["318.15"], ["100"], ["1.49413", "0.00055"]]], "solvent": null, "expmeth": "Standard Abbe refractometry", "constr": [], "ref": {"title": "Thermophysical properties of binary mixtures of (methanol or 1-ethyl-3-methylimidazolium acetate + furfural or furfuryl alcohol) at various temperatures", "full": "Nduli, M.; Deenadayalu, N. (2017) J. Mol. Liq. 241, 407-421."}, "phases": ["Liquid"]}