{"constr": [], "ref": {"full": "Pal, A.; Gaba, R.; Singh, T.; Kumar, A. (2010) J. Mol. Liq. 154, 41-46.", "title": "Excess thermodynamic properties of binary mixtures of ionic liquid (1-butyl-3-methylimidazolium hexafluorophosphate) with alkoxyalkanols at several temperatures"}, "phases": ["Liquid"], "title": "Refraction, surface tension, and speed of sound: Refractive index (Na D-line)", "components": [{"formula": "C<SUB>5</SUB>H<SUB>12</SUB>O<SUB>2</SUB>", "name": "1-ethoxy-2-propanol", "idout": "AAUBLb", "mw": "104.15", "sample": [["Source:", "commercial source"], ["Purification:", "gas chromatography"], ["Purity:", "99.5 mol %"]]}, {"sample": [["Source:", "commercial source"], ["Purification:", "Karl Fischer titration"], ["Purity:", "0.02 water mass %(de-gassed by freezing and melting in vacuum;dried by vacuum heating)"]], "idout": "ABChJv", "mw": "284.19", "name": "1-butyl-3-methylimidazolium hexafluorophosphate", "formula": "C<SUB>8</SUB>H<SUB>15</SUB>F<SUB>6</SUB>N<SUB>2</SUB>P"}], "dhead": [["Temperature, K", null], ["Mole fraction of 1-butyl-3-methylimidazolium hexafluorophosphate", "Liquid"], ["Pressure, kPa", null], ["Refractive index (Na D-line)", "Liquid"]], "footer": "", "data": [[["298.15"], ["0.0526"], ["101"], ["1.4065", "0.0004"]], [["298.15"], ["0.1"], ["101"], ["1.4077", "0.0004"]], [["298.15"], ["0.1577"], ["101"], ["1.4088", "0.0004"]], [["298.15"], ["0.3445"], ["101"], ["1.4103", "0.0006"]], [["298.15"], ["0.4969"], ["101"], ["1.4104", "0.0007"]], [["298.15"], ["0.6702"], ["101"], ["1.4101", "0.0008"]], [["298.15"], ["0.745"], ["101"], ["1.41", "0.0009"]], [["298.15"], ["0.828"], ["101"], ["1.4098", "0.0009"]], [["298.15"], ["0.9468"], ["101"], ["1.4092", "0.001"]]], "solvent": null, "expmeth": "Standard Abbe refractometry"}