{"constr": [], "ref": {"full": "Zhao, Y.; Lv, J.; Liu, H.; Wu, J.; Tong, J. (2021) J. Mol. Liq. 336, 116094.", "title": "Study on the polarity and molar surface Gibbs energy of ether-based amino acid ionic liquids [COC4mim][Gly], [COC4mim][Ala] and [COC4mim][Thr]"}, "phases": ["Liquid"], "components": [{"name": "1-(4-methoxybutyl)-3-methylimidazolium DL-alaninate", "formula": "C<SUB>12</SUB>H<SUB>23</SUB>N<SUB>3</SUB>O<SUB>3</SUB>", "idout": "AAxZXm", "mw": "257.33", "sample": [["Source:", "synthesized by the authors"], ["Purification:", "estimated by the compiler;Karl Fischer titration"], ["Purity:", "98 mass %;0.489 water mass %(dried by vacuum heating)"]]}], "title": "Refraction, surface tension, and speed of sound: Refractive index (Na D-line)", "dhead": [["Temperature, K", null], ["Pressure, kPa", null], ["Refractive index (Na D-line)", "Liquid"]], "data": [[["288.15"], ["101.325"], ["1.5029", "0.003"]], [["293.15"], ["101.325"], ["1.5014", "0.003"]], [["298.15"], ["101.325"], ["1.4999", "0.003"]], [["303.15"], ["101.325"], ["1.4983", "0.003"]], [["308.15"], ["101.325"], ["1.4967", "0.003"]], [["313.15"], ["101.325"], ["1.4952", "0.003"]], [["318.15"], ["101.325"], ["1.4937", "0.003"]], [["323.15"], ["101.325"], ["1.4922", "0.003"]], [["328.15"], ["101.325"], ["1.4908", "0.003"]]], "solvent": null, "footer": "", "expmeth": "Standard Abbe refractometry"}