{"expmeth": "Standard Abbe refractometry", "footer": "", "data": [[["298.15"], ["101.325"], ["1.4215", "0.0004"]], [["303.15"], ["101.325"], ["1.4202", "0.0004"]], [["313.15"], ["101.325"], ["1.4179", "0.0004"]], [["323.15"], ["101.325"], ["1.4153", "0.0004"]]], "solvent": null, "dhead": [["Temperature, K", null], ["Pressure, kPa", null], ["Refractive index (Na D-line)", "Liquid"]], "title": "Refraction, surface tension, and speed of sound: Refractive index (Na D-line)", "components": [{"sample": [["Source:", "commercial source"], ["Purification:", "stated by supplier"], ["Purity:", "99 mass %"], ["Purity analysis:", "none used"]], "idout": "AArYBF", "mw": "226.03", "formula": "C<SUB>8</SUB>H<SUB>15</SUB>BF<SUB>4</SUB>N<SUB>2</SUB>", "name": "1-butyl-3-methylimidazolium tetrafluoroborate"}], "phases": ["Liquid"], "constr": [], "ref": {"full": "Ciocirlan, O.; Croitoru, O.; Iulian, O. (2014) J. Chem. Eng. Data 59(4), 1165-1174.", "title": "Density and Refractive Index of Binary Mixtures of Two 1-Alkyl-3-methylimidazolium Ionic Liquids with 1,4-Dioxane and Ethylene Glycol"}}