{"expmeth": "Standard Abbe refractometry", "data": [[["298.2"], ["0.0027"], ["95"], ["1.4201", "0.0009"]], [["298.2"], ["0.0057"], ["95"], ["1.4207", "0.0009"]], [["298.2"], ["0.0097"], ["95"], ["1.4215", "0.0009"]], [["313.2"], ["0.0072"], ["95"], ["1.4146", "0.0008"]], [["313.2"], ["0.0106"], ["95"], ["1.4153", "0.0008"]], [["313.2"], ["0.0135"], ["95"], ["1.4159", "0.0008"]]], "solvent": null, "footer": "", "dhead": [["Temperature, K", null], ["Mole fraction of 4,6-dimethyldibenzo[b,d]thiophene", "Liquid mixture 1"], ["Pressure, kPa", null], ["Refractive index (Na D-line)", "Liquid mixture 1"]], "components": [{"sample": [["Source:", "commercial source"], ["Purification:", "stated by supplier"], ["Purity:", "99.6 % (basis not specified)"]], "idout": "AAgnKZ", "mw": "170.34", "name": "dodecane", "formula": "C<SUB>12</SUB>H<SUB>26</SUB>"}, {"name": "4,6-dimethyldibenzo[b,d]thiophene", "formula": "C<SUB>14</SUB>H<SUB>12</SUB>S", "mw": "212.31", "idout": "AAoryz", "sample": [["Source:", "commercial source"], ["Purification:", "stated by supplier"], ["Purity:", "97 % (basis not specified)"]]}, {"name": "1-ethyl-3-methylimidazolium ethyl sulfate", "formula": "C<SUB>8</SUB>H<SUB>16</SUB>N<SUB>2</SUB>O<SUB>4</SUB>S", "idout": "AAtWDT", "mw": "236.29", "sample": [["Source:", "commercial source"], ["Initial purification:", "stated by supplier"], ["Initial purity:", "95 % (basis not specified)"], ["Final purification:", "Karl Fischer titration"], ["Final purity:", "0.05 water mass %"]]}], "title": "Refraction, surface tension, and speed of sound: Refractive index (Na D-line)", "phases": ["Liquid mixture 1", "Liquid mixture 2"], "constr": [], "ref": {"full": "Oliveira, L. H. d.; Aznar, M. (2011) J. Chem. Eng. Data 56(5), 2005-2012.", "title": "Liquid-Liquid Equilibria for {1-Ethyl-3-methylimidazolium Diethylphosphate or 1-Ethyl-3-methylimidazolium Ethylsulfate} + 4,6-Dimethyldibenzothiophene + Dodecane Systems at 298.2 K and 313.2 K  "}}