{"constr": [], "ref": {"full": "Alkhaldi, K. H. A. E.; Al-Jimaz, A. S.; AlTuwaim, M. S. (2017) J. Chem. Thermodyn. 110, 175-185.", "title": "Comparative study of physical properties of binary mixtures of halogen free ionic liquids with alcohols"}, "phases": ["Liquid"], "components": [{"name": "1,3-dimethylimidazolium methylsulfate", "formula": "C<SUB>6</SUB>H<SUB>12</SUB>N<SUB>2</SUB>O<SUB>4</SUB>S", "idout": "AAoCnc", "mw": "208.23", "sample": [["Source:", "commercial source"], ["Initial purification:", "stated by supplier"], ["Initial purity:", "97 mass %"], ["Final purification:", "Karl Fischer titration"], ["Final purity:", "0.0620 water mass %"]]}], "title": "Refraction, surface tension, and speed of sound: Refractive index (Na D-line)", "dhead": [["Temperature, K", null], ["Pressure, kPa", null], ["Refractive index (Na D-line)", "Liquid"]], "solvent": null, "data": [[["298"], ["101.3"], ["1.483", "0.01"]], [["303"], ["101.3"], ["1.481", "0.01"]], [["308"], ["101.3"], ["1.48", "0.01"]], [["313"], ["101.3"], ["1.479", "0.01"]]], "footer": "", "expmeth": "Standard Abbe refractometry"}