{"components": [{"sample": [["Source:", "commercial source"], ["Initial purification:", "stated by supplier"], ["Initial purity:", "99.9 mass %"], ["Final purification:", "Karl Fischer titration"], ["Final purity:", "0.0122 water mass %(dried in a desiccator)"]], "idout": "AAQxal", "mw": "88.15", "formula": "C<SUB>5</SUB>H<SUB>12</SUB>O", "name": "pentan-1-ol"}, {"sample": [["Source:", "commercial source"], ["Initial purification:", "stated by supplier"], ["Initial purity:", "99 mass %"], ["Final purification:", "Karl Fischer titration"], ["Final purity:", "0.0164 water mass %(dried in a desiccator;dried by vacuum heating)"]], "formula": "C<SUB>12</SUB>H<SUB>23</SUB>BF<SUB>4</SUB>N<SUB>2</SUB>", "name": "1-methyl-3-octylimidazolium tetrafluoroborate", "idout": "ABCNhW", "mw": "282.13"}], "title": "Refraction, surface tension, and speed of sound: Refractive index", "dhead": [["Mole fraction of 1-methyl-3-octylimidazolium tetrafluoroborate", "Liquid"], ["Temperature, K", null], ["Pressure, kPa", null], ["Wavelength, A", "Liquid"], ["Refractive index", "Liquid"]], "solvent": null, "data": [[["0"], ["290.679"], ["85"], ["632.8"], ["1.4096", "0.0002"]], [["0"], ["292.95"], ["85"], ["632.8"], ["1.4087", "0.0002"]], [["0"], ["295.034"], ["85"], ["632.8"], ["1.4079", "0.0002"]], [["0"], ["297.174"], ["85"], ["632.8"], ["1.4071", "0.0002"]], [["0"], ["299.35"], ["85"], ["632.8"], ["1.4062", "0.0002"]], [["0"], ["301.73"], ["85"], ["632.8"], ["1.4053", "0.0002"]], [["0.1"], ["290.561"], ["85"], ["632.8"], ["1.4148", "0.0002"]], [["0.1"], ["292.951"], ["85"], ["632.8"], ["1.414", "0.0002"]], [["0.1"], ["295.042"], ["85"], ["632.8"], ["1.4132", "0.0002"]], [["0.1"], ["297.324"], ["85"], ["632.8"], ["1.4124", "0.0002"]], [["0.1"], ["299.258"], ["85"], ["632.8"], ["1.4116", "0.0002"]], [["0.1"], ["301.731"], ["85"], ["632.8"], ["1.4107", "0.0002"]], [["0.2"], ["290.948"], ["85"], ["632.8"], ["1.4185", "0.0002"]], [["0.2"], ["292.679"], ["85"], ["632.8"], ["1.4179", "0.0002"]], [["0.2"], ["294.763"], ["85"], ["632.8"], ["1.4171", "0.0002"]], [["0.2"], ["296.549"], ["85"], ["632.8"], ["1.4165", "0.0002"]], [["0.2"], ["298.671"], ["85"], ["632.8"], ["1.4158", "0.0002"]], [["0.2"], ["300.675"], ["85"], ["632.8"], ["1.4151", "0.0002"]], [["0.396"], ["290.926"], ["85"], ["632.8"], ["1.4243", "0.0002"]], [["0.396"], ["292.671"], ["85"], ["632.8"], ["1.4237", "0.0002"]], [["0.396"], ["294.443"], ["85"], ["632.8"], ["1.423", "0.0002"]], [["0.396"], ["296.313"], ["85"], ["632.8"], ["1.4224", "0.0002"]], [["0.396"], ["298.308"], ["85"], ["632.8"], ["1.4217", "0.0002"]], [["0.396"], ["300.612"], ["85"], ["632.8"], ["1.4209", "0.0002"]], [["0.498"], ["290.759"], ["85"], ["632.8"], ["1.4264", "0.0002"]], [["0.498"], ["292.327"], ["85"], ["632.8"], ["1.4259", "0.0002"]], [["0.498"], ["294.006"], ["85"], ["632.8"], ["1.4253", "0.0002"]], [["0.498"], ["295.73"], ["85"], ["632.8"], ["1.4248", "0.0002"]], [["0.498"], ["297.689"], ["85"], ["632.8"], ["1.4241", "0.0002"]], [["0.498"], ["299.743"], ["85"], ["632.8"], ["1.4235", "0.0002"]], [["0.598"], ["290.491"], ["85"], ["632.8"], ["1.4284", "0.0002"]], [["0.598"], ["292.276"], ["85"], ["632.8"], ["1.4279", "0.0002"]], [["0.598"], ["294.074"], ["85"], ["632.8"], ["1.4273", "0.0002"]], [["0.598"], ["295.842"], ["85"], ["632.8"], ["1.4268", "0.0002"]], [["0.598"], ["297.708"], ["85"], ["632.8"], ["1.4262", "0.0002"]], [["0.598"], ["299.741"], ["85"], ["632.8"], ["1.4256", "0.0002"]], [["0.697"], ["290.67"], ["85"], ["632.8"], ["1.4299", "0.0003"]], [["0.697"], ["292.39"], ["85"], ["632.8"], ["1.4294", "0.0003"]], [["0.697"], ["294.117"], ["85"], ["632.8"], ["1.4289", "0.0003"]], [["0.697"], ["295.92"], ["85"], ["632.8"], ["1.4283", "0.0003"]], [["0.697"], ["297.684"], ["85"], ["632.8"], ["1.4278", "0.0003"]], [["0.697"], ["299.585"], ["85"], ["632.8"], ["1.4273", "0.0003"]], [["0.797"], ["290.594"], ["85"], ["632.8"], ["1.4313", "0.0003"]], [["0.797"], ["292.297"], ["85"], ["632.8"], ["1.4308", "0.0003"]], [["0.797"], ["294.092"], ["85"], ["632.8"], ["1.4303", "0.0003"]], [["0.797"], ["295.911"], ["85"], ["632.8"], ["1.4299", "0.0003"]], [["0.797"], ["297.605"], ["85"], ["632.8"], ["1.4294", "0.0003"]], [["0.797"], ["299.585"], ["85"], ["632.8"], ["1.4288", "0.0003"]], [["0.898"], ["290.593"], ["85"], ["632.8"], ["1.4327", "0.0003"]], [["0.898"], ["292.218"], ["85"], ["632.8"], ["1.4322", "0.0003"]], [["0.898"], ["294.056"], ["85"], ["632.8"], ["1.4317", "0.0003"]], [["0.898"], ["295.889"], ["85"], ["632.8"], ["1.4312", "0.0003"]], [["0.898"], ["297.838"], ["85"], ["632.8"], ["1.4306", "0.0003"]], [["0.898"], ["299.921"], ["85"], ["632.8"], ["1.43", "0.0003"]], [["1"], ["290.495"], ["85"], ["632.8"], ["1.4338", "0.0003"]], [["1"], ["291.873"], ["85"], ["632.8"], ["1.4334", "0.0003"]], [["1"], ["293.431"], ["85"], ["632.8"], ["1.433", "0.0003"]], [["1"], ["295.046"], ["85"], ["632.8"], ["1.4325", "0.0003"]], [["1"], ["296.679"], ["85"], ["632.8"], ["1.4321", "0.0003"]], [["1"], ["298.41"], ["85"], ["632.8"], ["1.4316", "0.0003"]], [["1"], ["300.255"], ["85"], ["632.8"], ["1.4311", "0.0003"]], [["1"], ["302.042"], ["85"], ["632.8"], ["1.4305", "0.0003"]]], "footer": "", "expmeth": "minimum deviation angle", "ref": {"title": "Liquid-liquid phase equilibria of ionic liquid solutions in the critical region: 1-Methyl-3-octylimidazolium tetrafluoroborate with1-pentanol or 1-hexanol", "full": "Hao, Z.; Cui, Z.; Yin, T.; Zheng, P.; Zhao, J.; Shen, W. (2014) Fluid Phase Equilib. 380, 58-66."}, "constr": [], "phases": ["Liquid"]}