{"expmeth": "Standard Abbe refractometry", "footer": "", "data": [[["298.2"], ["0.0024"], ["95"], ["1.4201", "0.0008"]], [["298.2"], ["0.0045"], ["95"], ["1.4205", "0.0008"]], [["298.2"], ["0.0065"], ["95"], ["1.4209", "0.0007"]], [["313.2"], ["0.0062"], ["95"], ["1.4144", "0.0007"]], [["313.2"], ["0.0086"], ["95"], ["1.4149", "0.0007"]], [["313.2"], ["0.0101"], ["95"], ["1.4152", "0.0007"]]], "solvent": null, "dhead": [["Temperature, K", null], ["Mole fraction of 4,6-dimethyldibenzo[b,d]thiophene", "Liquid mixture 1"], ["Pressure, kPa", null], ["Refractive index (Na D-line)", "Liquid mixture 1"]], "title": "Refraction, surface tension, and speed of sound: Refractive index (Na D-line)", "components": [{"name": "dodecane", "formula": "C<SUB>12</SUB>H<SUB>26</SUB>", "mw": "170.34", "idout": "AAgnKZ", "sample": [["Source:", "commercial source"], ["Purification:", "stated by supplier"], ["Purity:", "99.6 % (basis not specified)"]]}, {"sample": [["Source:", "commercial source"], ["Purification:", "stated by supplier"], ["Purity:", "97 % (basis not specified)"]], "formula": "C<SUB>14</SUB>H<SUB>12</SUB>S", "name": "4,6-dimethyldibenzo[b,d]thiophene", "mw": "212.31", "idout": "AAoryz"}, {"sample": [["Source:", "commercial source"], ["Initial purification:", "stated by supplier"], ["Initial purity:", "98 % (basis not specified)"], ["Final purification:", "Karl Fischer titration"], ["Final purity:", "0.05 water mass %"]], "mw": "264.26", "idout": "AAyqRj", "name": "1-ethyl-3-methylimidazolium diethyl phosphate", "formula": "C<SUB>10</SUB>H<SUB>21</SUB>N<SUB>2</SUB>O<SUB>4</SUB>P"}], "phases": ["Liquid mixture 1", "Liquid mixture 2"], "constr": [], "ref": {"title": "Liquid-Liquid Equilibria for {1-Ethyl-3-methylimidazolium Diethylphosphate or 1-Ethyl-3-methylimidazolium Ethylsulfate} + 4,6-Dimethyldibenzothiophene + Dodecane Systems at 298.2 K and 313.2 K  ", "full": "Oliveira, L. H. d.; Aznar, M. (2011) J. Chem. Eng. Data 56(5), 2005-2012."}}