{"phases": ["Liquid"], "constr": [], "ref": {"full": "Koller, T. M.; Schmid, S. R.; Sachnov, S. J.; Rausch, M. H.; Wasserscheid, P.; Froba, A. P. (2014) Int. J. Thermophys. 35(2), 195-217.", "title": "Measurement and Prediction of the Thermal Conductivity of Tricyanomethanide- and Tetracyanoborate-Based Imidazolium Ionic Liquids"}, "expmeth": "Standard Abbe refractometry", "data": [[["283.15"], ["101.325"], ["1.5127", "0.0007"]], [["293.15"], ["101.325"], ["1.5102", "0.0007"]], [["303.15"], ["101.325"], ["1.5071", "0.0007"]], [["313.15"], ["101.325"], ["1.5038", "0.0007"]]], "solvent": null, "footer": "", "dhead": [["Temperature, K", null], ["Pressure, kPa", null], ["Refractive index (Na D-line)", "Liquid"]], "components": [{"name": "1-butyl-3-methylimidazolium tricyanomethane", "formula": "C<SUB>12</SUB>H<SUB>15</SUB>N<SUB>5</SUB>", "idout": "AAsEJq", "mw": "229.29", "sample": [["Source:", "commercial source"], ["Initial purification:", "ion chromatography"], ["Initial purity:", "98 mol %"], ["Final purification:", "Karl Fischer titration"], ["Final purity:", "0.0578 water mass %(dried by vacuum heating)"]]}], "title": "Refraction, surface tension, and speed of sound: Refractive index (Na D-line)"}