{"constr": [], "ref": {"title": "Cation effect of ammonium imide based ionic liquids in alcohols extraction from alcohol-alkane azeotropic mixtures", "full": "Aranda, N. M.; Gonzalez, B. (2014) J. Chem. Thermodyn. 68, 32-39."}, "phases": ["Liquid"], "components": [{"name": "butyltrimethylammonium bis(trifluoromethylsulfonyl)imide", "formula": "C<SUB>9</SUB>H<SUB>18</SUB>F<SUB>6</SUB>N<SUB>2</SUB>O<SUB>4</SUB>S<SUB>2</SUB>", "idout": "ABYLZx", "mw": "396.36", "sample": [["Source:", "commercial source"], ["Initial purification:", "stated by supplier"], ["Initial purity:", "99.9 mass %"], ["Final purification:", "Karl Fischer titration;not known"], ["Final purity:", "0.005 water mass %;0.01 halide impurity mass %(dried by vacuum heating)"]]}], "title": "Refraction, surface tension, and speed of sound: Refractive index (Na D-line)", "dhead": [["Pressure, kPa", null], ["Temperature, K", null], ["Refractive index (Na D-line)", "Liquid"]], "data": [[["100"], ["298.15"], ["1.40806", "0.00031"]]], "solvent": null, "footer": "", "expmeth": "Standard Abbe refractometry"}