{"constr": [], "ref": {"title": "Influence of the alkyl side chain length on the thermophysical properties of chiral ionic liquids with a (1R,2S,5R)-(-)-menthol substituent and data analysis by means of mathematical gnostics", "full": "Andresova, Adela; Bendova, Magdalena; Schwarz, Jaroslav; Wagner, Zdenek; Feder-Kubis, Joanna (2017) J. Mol. Liq. 242, 336-348."}, "phases": ["Liquid"], "dhead": [["Temperature, K", null], ["Pressure, kPa", null], ["Refractive index (Na D-line)", "Liquid"]], "components": [{"name": "3-dodecyl-1-[(1R,2S,5R)-(-)-menthoxymethyl]imidazolium bis(trifluoromethylsulfonyl)imide", "formula": "C<SUB>28</SUB>H<SUB>49</SUB>F<SUB>6</SUB>N<SUB>3</SUB>O<SUB>5</SUB>S<SUB>2</SUB>", "mw": "685.83", "idout": "ACbuHN", "sample": [["Source:", "synthesized by the authors"], ["Purification:", "NMR (proton);Karl Fischer titration"], ["Purity:", "99.972 mass %;0.024 water mass %(dried by vacuum heating;solvent extraction)"]]}], "title": "Refraction, surface tension, and speed of sound: Refractive index (Na D-line)", "expmeth": "Standard Abbe refractometry", "solvent": null, "data": [[["298.15"], ["101.325"], ["1.4518", "0.0007"]]], "footer": ""}