{"ref": {"title": "Hydrophobic, Highly Conductive Ambient-Temperature Molten Salts", "full": "Bonhote, P.; Dias, A.-P.; Papageorgiou, N.; Kalyanasundaram, K.; Gratzel, M. (1996) Inorg. Chem. 35(5), 1168-1178."}, "constr": [], "phases": ["Liquid"], "components": [{"sample": [["Source:", "synthesized by the authors"], ["Purification:", "estimated by the compiler"], ["Purity:", "99 mass %"]], "name": "3-ethyl-1,5-dimethylimidazolium bis((trifluoromethyl)sulfonyl)amide", "formula": "C<SUB>9</SUB>H<SUB>13</SUB>F<SUB>6</SUB>N<SUB>3</SUB>O<SUB>4</SUB>S<SUB>2</SUB>", "mw": "405.33", "idout": "ABZxTD"}], "title": "Refraction, surface tension, and speed of sound: Refractive index (Na D-line)", "dhead": [["Temperature, K", null], ["Pressure, kPa", null], ["Refractive index (Na D-line)", "Liquid"]], "data": [[["293"], ["101.325"], ["1.4275", "0.0008"]]], "solvent": null, "footer": "", "expmeth": "Standard Abbe refractometry"}