{"ref": {"title": "Study of Liquid Liquid Equilibria of Toluene + (Hexane, Heptane, or Cyclohexane) with 1-Ethyl-3-methylimidazolium Ethylsulfate at 308.15 K", "full": "Martinez-Reina, M. D.; Amado-Gonzalex, E.; Munoz-Munoz, Y. M. (2012) Bull. Chem. Soc. Jpn. 85(10), 1138-1144."}, "constr": [], "phases": ["Liquid"], "title": "Refraction, surface tension, and speed of sound: Refractive index (Na D-line)", "components": [{"sample": [["Source:", "commercial source"], ["Initial purification:", "stated by supplier"], ["Initial purity:", "95 mass %"], ["Final purification:", "Karl Fischer titration"], ["Final purity:", "0.0052 water mass %(dried by vacuum heating)"]], "name": "1-ethyl-3-methylimidazolium ethyl sulfate", "formula": "C<SUB>8</SUB>H<SUB>16</SUB>N<SUB>2</SUB>O<SUB>4</SUB>S", "mw": "236.29", "idout": "AAtWDT"}], "dhead": [["Temperature, K", null], ["Pressure, kPa", null], ["Refractive index (Na D-line)", "Liquid"]], "footer": "", "data": [[["298.15"], ["101.325"], ["1.479", "0.0011"]]], "solvent": null, "expmeth": "Standard Abbe refractometry"}