{"ref": {"title": "Physicochemical Properties of Ether-Functionalized Ionic Liquids: Understanding Their Irregular Variations with the Ether Chain Length", "full": "Chen, Z.; Huo, Y.; Cao, J.; Xu, L.; Zhang, S. (2016) Ind. Eng. Chem. Res. 55, 11589-11596."}, "constr": [], "phases": ["Liquid"], "components": [{"name": "1-(2-propoxyethyl)pyridinium bis((trifluoromethyl)sulfonyl)amide", "formula": "C<SUB>12</SUB>H<SUB>16</SUB>F<SUB>6</SUB>N<SUB>2</SUB>O<SUB>5</SUB>S<SUB>2</SUB>", "mw": "446.38", "idout": "ABhryh", "sample": [["Source:", "synthesized by the authors"], ["Purification:", "NMR (proton);Karl Fischer titration;ion-selective electrode"], ["Purity:", "99.4 mass %;0.00526 water mass %;0.0080 halide impurity mass %(dried by vacuum heating)"]]}], "title": "Refraction, surface tension, and speed of sound: Refractive index (Na D-line)", "dhead": [["Temperature, K", null], ["Pressure, kPa", null], ["Refractive index (Na D-line)", "Liquid"]], "data": [[["283.15"], ["101.325"], ["1.4458", "0.0005"]], [["293.15"], ["101.325"], ["1.4433", "0.0005"]], [["298.15"], ["101.325"], ["1.4417", "0.0005"]], [["303.15"], ["101.325"], ["1.4404", "0.0005"]], [["313.15"], ["101.325"], ["1.4375", "0.0005"]], [["323.15"], ["101.325"], ["1.435", "0.0005"]], [["333.15"], ["101.325"], ["1.432", "0.0005"]], [["343.15"], ["101.325"], ["1.4294", "0.0005"]], [["353.15"], ["101.325"], ["1.4267", "0.0005"]]], "solvent": null, "footer": "", "expmeth": "Standard Abbe refractometry"}