{"ref": {"full": "Jin, H.; O Hare, B.; Dong, J.; Arzhantsev, S.; Baker, G. A.; Wishart, J. F.; Benesi, A. J.; Maroncelli, M. (2008) J. Phys. Chem. B 112, 81-92.", "title": "Physical Properties of Ionic Liquids Consisting of the 1-Butyl-3-Methylimidazolium Cation with Various Anions and the Bis(trifluoromethylsulfonyl)imide Anion with Various Cations"}, "constr": [], "phases": ["Liquid"], "components": [{"formula": "C<SUB>10</SUB>H<SUB>20</SUB>F<SUB>6</SUB>N<SUB>2</SUB>O<SUB>4</SUB>S<SUB>2</SUB>", "name": "N-isopropyl-N,N-dimethylpropan-1-aminium bis((trifluoromethyl)sulfonyl)amide", "mw": "410.39", "idout": "ABavNe", "sample": [["Source:", "synthesized by the authors"], ["Purification:", "estimated by the compiler;Karl Fischer titration"], ["Purity:", "98 mass %;0.0015 water mass %(dried by vacuum heating)"]]}], "title": "Refraction, surface tension, and speed of sound: Refractive index (Na D-line)", "dhead": [["Temperature, K", null], ["Pressure, kPa", null], ["Refractive index (Na D-line)", "Liquid"]], "data": [[["298.1"], ["101.325"], ["1.416", "0.002"]]], "solvent": null, "footer": "", "expmeth": "Standard Abbe refractometry"}