{"ref": {"title": "Measurements and Correlations of the Solid Liquid Equilibrium of RbCl/CsCl + [Cnmim]Cl (n = 2, 4, 6, 8) + H2O Ternary Systems at T = (288.15, 298.15, and 308.15) K", "full": "Tang, J.; Li, S.; Zhai, Q.-G.; Jiang, Y.; Hu, M. (2014) J. Chem. Eng. Data 59(3), 726-735."}, "constr": [], "phases": ["Liquid"], "title": "Refraction, surface tension, and speed of sound: Refractive index (Na D-line)", "components": [{"sample": [["Source:", "commercial source"], ["Purification:", "estimated by the compiler"], ["Purity:", "99.9 mass %(fractional distillation)"]], "formula": "H<SUB>2</SUB>O", "name": "water", "mw": "18.02", "idout": "AADYJk"}, {"sample": [["Source:", "commercial source"], ["Purification:", "stated by supplier"], ["Purity:", "99 mass %"], ["Purity analysis:", "dried by vacuum heating"]], "name": "1-hexyl-3-methylimidazolium chloride", "formula": "C<SUB>10</SUB>H<SUB>19</SUB>ClN<SUB>2</SUB>", "idout": "AAmzKp", "mw": "202.73"}], "dhead": [["Temperature, K", null], ["Weight fraction of 1-hexyl-3-methylimidazolium chloride", "Liquid"], ["Pressure, kPa", null], ["Refractive index (Na D-line)", "Liquid"]], "footer": "", "data": [[["298.15"], ["0.0108"], ["101"], ["1.33441", "0.0029"]], [["298.15"], ["0.0168"], ["101"], ["1.33539", "0.0011"]], [["298.15"], ["0.0215"], ["101"], ["1.33623", "0.0029"]], [["298.15"], ["0.0323"], ["101"], ["1.33808", "0.0029"]], [["298.15"], ["0.0339"], ["101"], ["1.33829", "0.0011"]], [["298.15"], ["0.0432"], ["101"], ["1.33994", "0.0029"]], [["298.15"], ["0.0509"], ["101"], ["1.34112", "0.0011"]], [["298.15"], ["0.0533"], ["101"], ["1.34167", "0.0029"]], [["298.15"], ["0.0647"], ["101"], ["1.34362", "0.0029"]], [["298.15"], ["0.0678"], ["101"], ["1.34402", "0.00098"]], [["298.15"], ["0.0756"], ["101"], ["1.34548", "0.0029"]], [["298.15"], ["0.0848"], ["101"], ["1.34687", "0.00071"]], [["298.15"], ["0.0859"], ["101"], ["1.34724", "0.0029"]], [["298.15"], ["0.0969"], ["101"], ["1.34912", "0.0029"]], [["298.15"], ["0.1018"], ["101"], ["1.34978", "0.00086"]], [["298.15"], ["0.1078"], ["101"], ["1.35098", "0.0029"]], [["298.15"], ["0.1186"], ["101"], ["1.35277", "0.00076"]], [["298.15"], ["0.1356"], ["101"], ["1.35557", "0.00094"]], [["298.15"], ["0.1526"], ["101"], ["1.35856", "0.00085"]], [["298.15"], ["0.1695"], ["101"], ["1.36149", "0.00087"]]], "solvent": null, "expmeth": "Standard Abbe refractometry"}