{"dhead": [["Temperature, K", null], ["Pressure, kPa", null], ["Refractive index (Na D-line)", "Liquid"]], "components": [{"mw": "402.33", "idout": "ABZTYy", "name": "1-ethyl-4-methylpyridinium bis((trifluoromethyl)sulfonyl)amide", "formula": "C<SUB>10</SUB>H<SUB>12</SUB>F<SUB>6</SUB>N<SUB>2</SUB>O<SUB>4</SUB>S<SUB>2</SUB>", "sample": [["Source:", "commercial source"], ["Initial purification:", "stated by supplier"], ["Initial purity:", "99 mass %"], ["Final purification:", "Karl Fischer titration;ion chromatography"], ["Final purity:", "0.0028 water mass %;0.01 halide impurity mass %(dried by vacuum heating)"]]}], "title": "Refraction, surface tension, and speed of sound: Refractive index (Na D-line)", "expmeth": "Standard Abbe refractometry", "solvent": null, "data": [[["293.15"], ["101.325"], ["1.44562", "0.00037"]], [["298.15"], ["101.325"], ["1.44412", "0.00037"]], [["303.15"], ["101.325"], ["1.4426", "0.00037"]], [["308.15"], ["101.325"], ["1.44108", "0.00037"]], [["313.15"], ["101.325"], ["1.43954", "0.00037"]], [["318.15"], ["101.325"], ["1.43794", "0.00037"]], [["323.15"], ["101.325"], ["1.43641", "0.00037"]], [["328.15"], ["101.325"], ["1.43493", "0.00037"]], [["333.15"], ["101.325"], ["1.43344", "0.00037"]], [["338.15"], ["101.325"], ["1.43195", "0.00037"]], [["343.15"], ["101.325"], ["1.43047", "0.00037"]]], "footer": "", "ref": {"title": "Effect of the relative humidity and isomeric structure on the physical properties of pyridinium based-ionic liquids", "full": "Gonzalez, E. J.; Gonzalez, B.; Macedo, E. A. (2015) J. Chem. Thermodyn. 86, 96-105."}, "constr": [], "phases": ["Liquid"]}