{"phases": ["Liquid"], "constr": [], "ref": {"full": "Navarro, P.; Larriba, M.; Garcia, S.; Garcia, J.; Rodriguez, F. (2012) J. Chem. Eng. Data 57(4), 1165-1173.", "title": "Physical Properties of Binary and Ternary Mixtures of 2-Propanol, Water, and 1-Butyl-3-methylimidazolium Tetrafluoroborate Ionic Liquid"}, "expmeth": "Standard Abbe refractometry", "data": [[["298.15"], ["101.325"], ["1.422", "0.0013"]], [["323.15"], ["101.325"], ["1.4155", "0.002"]]], "solvent": null, "footer": "", "dhead": [["Temperature, K", null], ["Pressure, kPa", null], ["Refractive index (Na D-line)", "Liquid"]], "components": [{"mw": "226.03", "idout": "AArYBF", "formula": "C<SUB>8</SUB>H<SUB>15</SUB>BF<SUB>4</SUB>N<SUB>2</SUB>", "name": "1-butyl-3-methylimidazolium tetrafluoroborate", "sample": [["Source:", "commercial source"], ["Initial purification:", "stated by supplier"], ["Initial purity:", "99 mass %"], ["Final purification:", "Karl Fischer titration;NMR (proton)"], ["Final purity:", "0.00025 water mass %;0.001 halide impurity mass %(dried in a desiccator)"]]}], "title": "Refraction, surface tension, and speed of sound: Refractive index (Na D-line)"}