{"dhead": [["Temperature, K", null], ["Pressure, kPa", null], ["Refractive index (Na D-line)", "Liquid"]], "components": [{"mw": "236.29", "idout": "AAtWDT", "name": "1-ethyl-3-methylimidazolium ethyl sulfate", "formula": "C<SUB>8</SUB>H<SUB>16</SUB>N<SUB>2</SUB>O<SUB>4</SUB>S", "sample": [["Source:", "synthesized by the authors"], ["Initial purification:", "estimated by the compiler"], ["Initial purity:", "97 mass %"], ["Final purification:", "Karl Fischer titration"], ["Final purity:", "0.0148 water mass %"]]}], "title": "Refraction, surface tension, and speed of sound: Refractive index (Na D-line)", "expmeth": "Standard Abbe refractometry", "data": [[["298.15"], ["101.325"], ["1.47903", "0.0009"]]], "solvent": null, "footer": "", "ref": {"full": "Alonso, L.; Arce, A.; Francisco, M.; Soto, A. (2008) J. Solution Chem. 37, 1355-1363.", "title": "Liquid-liquid Equilibria of ([C2mim][EtSO4] + Thiophene + 2,2,4-Trimethylpentane) and ([C2mim][EtSO4] + Thiophene + Toluene): Experimental Data and Correlation"}, "constr": [], "phases": ["Liquid"]}