{"constr": [], "ref": {"full": "Taib, M. M.; Ziyada, A. K.; Wilfred, C. D.; Murugesan, T. (2011) J. Mol. Liq. 158, 101-104.", "title": "Thermophysical properties of 1-propyronitrile-3-hexylimidazolium  bromide+methanol at temperatures (293.15 to 323.15)K"}, "phases": ["Liquid"], "title": "Refraction, surface tension, and speed of sound: Refractive index (Na D-line)", "components": [{"sample": [["Source:", "synthesized by the authors"], ["Purification:", "Karl Fischer titration;estimated by the compiler"], ["Purity:", "0.0392 water mass %;97 % (basis not specified)"]], "formula": "C<SUB>12</SUB>H<SUB>20</SUB>BrN<SUB>3</SUB>", "name": "3-(2-cyanoethyl)-1-hexyl-1H-imidazolium bromide", "idout": "ABDCBp", "mw": "286.22"}], "dhead": [["Temperature, K", null], ["Pressure, kPa", null], ["Refractive index (Na D-line)", "Liquid"]], "footer": "", "data": [[["293.15"], ["101.325"], ["1.5331", "0.002"]], [["298.15"], ["101.325"], ["1.53193", "0.0019"]], [["303.15"], ["101.325"], ["1.53101", "0.0019"]], [["308.15"], ["101.325"], ["1.53018", "0.0019"]], [["313.15"], ["101.325"], ["1.52914", "0.0019"]], [["318.15"], ["101.325"], ["1.52822", "0.0019"]], [["323.15"], ["101.325"], ["1.52738", "0.0019"]]], "solvent": null, "expmeth": "Standard Abbe refractometry"}