{"ref": {"full": "Ozdemir, M. C.; Ozgun, B. (2017) J. Mol. Liq. 248, 314-321.", "title": "Tunable aryl alkyl ionic liquids (TAAILs) based on 1-aryl-3,5-dimethyl-1H-pyrazoles"}, "constr": [], "phases": ["Liquid"], "components": [{"sample": [["Source:", "synthesized by the authors"], ["Purification:", "estimated by the compiler"], ["Purity:", "99 mass %(dried with chemical reagent;dried by vacuum heating;solvent extraction;impurity adsorption)"]], "idout": "ABIwMI", "mw": "316.80", "name": "1-(4-chlorophenyl)-2,3,5-trimethylpyrazolium methanesulfonate", "formula": "C<SUB>13</SUB>H<SUB>17</SUB>ClN<SUB>2</SUB>O<SUB>3</SUB>S"}], "title": "Refraction, surface tension, and speed of sound: Refractive index (Na D-line)", "dhead": [["Temperature, K", null], ["Pressure, kPa", null], ["Refractive index (Na D-line)", "Liquid"]], "solvent": null, "data": [[["298"], ["101.325"], ["1.546", "0.0004"]], [["308"], ["101.325"], ["1.543", "0.0004"]], [["313"], ["101.325"], ["1.5414", "0.0004"]], [["333"], ["101.325"], ["1.5354", "0.0004"]]], "footer": "", "expmeth": "Standard Abbe refractometry"}