{"components": [{"sample": [["Source:", "commercial source"], ["Purification:", "stated by supplier"], ["Purity:", "99.8 mass %"], ["Purity analysis:", "de-gassed by boiling or ultrasonically;molecular sieve treatment"]], "mw": "32.04", "idout": "AAGIBL", "name": "methanol", "formula": "CH<SUB>4</SUB>O"}, {"sample": [["Source:", "commercial source"], ["Initial purification:", "stated by supplier"], ["Initial purity:", "98 mass %"], ["Final purification:", "Karl Fischer titration"], ["Final purity:", "0.05 water mass %(dried in a desiccator)"]], "idout": "AAyCVz", "mw": "260.23", "formula": "C<SUB>7</SUB>H<SUB>11</SUB>F<SUB>3</SUB>N<SUB>2</SUB>O<SUB>3</SUB>S", "name": "1-ethyl-3-methylimidazolium trifluoromethanesulfonate"}], "title": "Refraction, surface tension, and speed of sound: Refractive index (Na D-line)", "dhead": [["Temperature, K", null], ["Mole fraction of 1-ethyl-3-methylimidazolium trifluoromethanesulfonate", "Liquid"], ["Pressure, kPa", null], ["Refractive index (Na D-line)", "Liquid"]], "data": [[["288.15"], ["0"], ["101"], ["1.33071", "0.0012"]], [["288.15"], ["0.04981"], ["101"], ["1.35401", "0.0012"]], [["288.15"], ["0.10059"], ["101"], ["1.37019", "0.0012"]], [["288.15"], ["0.1503"], ["101"], ["1.38187", "0.0012"]], [["288.15"], ["0.2002"], ["101"], ["1.39131", "0.0012"]], [["288.15"], ["0.25165"], ["101"], ["1.39849", "0.0013"]], [["288.15"], ["0.30177"], ["101"], ["1.40415", "0.0013"]], [["288.15"], ["0.39768"], ["101"], ["1.41297", "0.0013"]], [["288.15"], ["0.49902"], ["101"], ["1.41931", "0.0013"]], [["288.15"], ["0.59106"], ["101"], ["1.42382", "0.0013"]], [["288.15"], ["0.70591"], ["101"], ["1.42818", "0.0013"]], [["288.15"], ["0.80539"], ["101"], ["1.43127", "0.0013"]], [["288.15"], ["0.84944"], ["101"], ["1.43236", "0.0013"]], [["288.15"], ["0.90126"], ["101"], ["1.43359", "0.0013"]], [["288.15"], ["1"], ["101"], ["1.43599", "0.0013"]], [["298.15"], ["0"], ["101"], ["1.32653", "0.0012"]], [["298.15"], ["0.04981"], ["101"], ["1.35019", "0.0012"]], [["298.15"], ["0.10059"], ["101"], ["1.36654", "0.0012"]], [["298.15"], ["0.1503"], ["101"], ["1.37846", "0.0012"]], [["298.15"], ["0.2002"], ["101"], ["1.38786", "0.0012"]], [["298.15"], ["0.25165"], ["101"], ["1.39527", "0.0013"]], [["298.15"], ["0.30177"], ["101"], ["1.40103", "0.0013"]], [["298.15"], ["0.39768"], ["101"], ["1.40987", "0.0013"]], [["298.15"], ["0.49902"], ["101"], ["1.4163", "0.0013"]], [["298.15"], ["0.59106"], ["101"], ["1.42086", "0.0013"]], [["298.15"], ["0.70591"], ["101"], ["1.42529", "0.0013"]], [["298.15"], ["0.80539"], ["101"], ["1.42843", "0.0013"]], [["298.15"], ["0.84944"], ["101"], ["1.42952", "0.0013"]], [["298.15"], ["0.90126"], ["101"], ["1.4308", "0.0013"]], [["298.15"], ["1"], ["101"], ["1.43322", "0.0013"]], [["308.15"], ["0"], ["101"], ["1.32237", "0.0012"]], [["308.15"], ["0.04981"], ["101"], ["1.34673", "0.0012"]], [["308.15"], ["0.10059"], ["101"], ["1.3636", "0.0012"]], [["308.15"], ["0.1503"], ["101"], ["1.37522", "0.0012"]], [["308.15"], ["0.2002"], ["101"], ["1.38479", "0.0012"]], [["308.15"], ["0.25165"], ["101"], ["1.39212", "0.0013"]], [["308.15"], ["0.30177"], ["101"], ["1.3983", "0.0013"]], [["308.15"], ["0.39768"], ["101"], ["1.40694", "0.0013"]], [["308.15"], ["0.49902"], ["101"], ["1.41325", "0.0013"]], [["308.15"], ["0.59106"], ["101"], ["1.41783", "0.0013"]], [["308.15"], ["0.70591"], ["101"], ["1.42236", "0.0013"]], [["308.15"], ["0.80539"], ["101"], ["1.42553", "0.0013"]], [["308.15"], ["0.84944"], ["101"], ["1.42665", "0.0013"]], [["308.15"], ["0.90126"], ["101"], ["1.42799", "0.0013"]], [["308.15"], ["1"], ["101"], ["1.4304", "0.0013"]], [["318.15"], ["0"], ["101"], ["1.3182", "0.0012"]], [["318.15"], ["0.04981"], ["101"], ["1.34425", "0.0012"]], [["318.15"], ["0.10059"], ["101"], ["1.36131", "0.0012"]], [["318.15"], ["0.1503"], ["101"], ["1.37261", "0.0012"]], [["318.15"], ["0.2002"], ["101"], ["1.38175", "0.0012"]], [["318.15"], ["0.25165"], ["101"], ["1.38903", "0.0013"]], [["318.15"], ["0.30177"], ["101"], ["1.39535", "0.0013"]], [["318.15"], ["0.39768"], ["101"], ["1.40394", "0.0013"]], [["318.15"], ["0.49902"], ["101"], ["1.41035", "0.0013"]], [["318.15"], ["0.59106"], ["101"], ["1.41502", "0.0013"]], [["318.15"], ["0.70591"], ["101"], ["1.41954", "0.0013"]], [["318.15"], ["0.80539"], ["101"], ["1.42265", "0.0013"]], [["318.15"], ["0.84944"], ["101"], ["1.42387", "0.0013"]], [["318.15"], ["0.90126"], ["101"], ["1.42515", "0.0013"]], [["318.15"], ["1"], ["101"], ["1.42767", "0.0013"]]], "solvent": null, "footer": "", "expmeth": "Standard Abbe refractometry", "ref": {"full": "Vercher, E.; Llopis, F. J.; Gonzalez-Alfaro, V.; Martinez-Andreu, A. (2010) J. Chem. Eng. Data 55(3), 1430-1433.", "title": "Refractive Indices and Deviations in Refractive Indices for Binary Mixtures of 1-Ethyl-3-methylimidazolium Trifluoromethanesulfonate with Methanol, Ethanol, 1-Propanol, and 2-Propanol at Several Temperatures"}, "constr": [], "phases": ["Liquid"]}