{"constr": [], "ref": {"title": "Thermodynamic behavior of {ethanol + butylpyridinium tetrafluoroborate} binary solution in the critical region", "full": "Tao, X.; Yin, T.; Xu, C.; Shen, W. (2017) J. Chem. Thermodyn. 110, 211-217."}, "phases": ["Liquid"], "title": "Refraction, surface tension, and speed of sound: Refractive index", "components": [{"name": "1-butylpyridinium tetrafluoroborate", "formula": "C<SUB>9</SUB>H<SUB>14</SUB>BF<SUB>4</SUB>N", "idout": "AAquMR", "mw": "223.02", "sample": [["Source:", "commercial source"], ["Initial purification:", "stated by supplier"], ["Initial purity:", "99 mass %"], ["Final purification:", "Karl Fischer titration"], ["Final purity:", "0.0520 water mass %(dried in a desiccator;dried by vacuum heating)"]]}], "dhead": [["Temperature, K", null], ["Pressure, kPa", null], ["Wavelength, A", "Liquid"], ["Refractive index", "Liquid"]], "footer": "", "solvent": null, "data": [[["281.729"], ["100"], ["632.8"], ["1.4481", "0.0003"]], [["282.782"], ["100"], ["632.8"], ["1.4478", "0.0003"]], [["284.14"], ["100"], ["632.8"], ["1.4475", "0.0003"]], [["285.742"], ["100"], ["632.8"], ["1.4471", "0.0003"]], [["286.943"], ["100"], ["632.8"], ["1.4468", "0.0003"]], [["288.237"], ["100"], ["632.8"], ["1.4464", "0.0003"]], [["289.379"], ["100"], ["632.8"], ["1.4461", "0.0003"]], [["290.372"], ["100"], ["632.8"], ["1.4458", "0.0003"]], [["292.155"], ["100"], ["632.8"], ["1.4454", "0.0003"]], [["293.406"], ["100"], ["632.8"], ["1.4451", "0.0003"]], [["295.001"], ["100"], ["632.8"], ["1.4446", "0.0003"]], [["296.889"], ["100"], ["632.8"], ["1.444", "0.0003"]]], "expmeth": "minimum deviation angle method"}