{"dhead": [["Temperature, K", null], ["Pressure, kPa", null], ["Wavelength, A", "Liquid"], ["Refractive index", "Liquid"]], "components": [{"idout": "ABXNZH", "mw": "391.30", "formula": "C<SUB>8</SUB>H<SUB>11</SUB>F<SUB>6</SUB>N<SUB>3</SUB>O<SUB>4</SUB>S<SUB>2</SUB>", "name": "1-ethyl-3-methylimidazolium bis((trifluoromethyl)sulfonyl)imide", "sample": [["Source:", "commercial source"], ["Purification:", "stated by supplier"], ["Purity:", "99 mass %"], ["Purity analysis:", "dried in a desiccator;dried by vacuum heating"]]}], "title": "Refraction, surface tension, and speed of sound: Refractive index", "expmeth": "Standard Abbe refractometry", "data": [[["285.034"], ["101.3"], ["632.8"], ["1.4252", "0.0004"]], [["287.165"], ["101.3"], ["632.8"], ["1.4246", "0.0004"]], [["288.969"], ["101.3"], ["632.8"], ["1.4242", "0.0004"]], [["290.281"], ["101.3"], ["632.8"], ["1.4238", "0.0004"]], [["291.114"], ["101.3"], ["632.8"], ["1.4236", "0.0004"]], [["292.189"], ["101.3"], ["632.8"], ["1.4233", "0.0004"]], [["293.157"], ["101.3"], ["632.8"], ["1.423", "0.0004"]], [["294.213"], ["101.3"], ["632.8"], ["1.4227", "0.0004"]], [["295.176"], ["101.3"], ["632.8"], ["1.4225", "0.0004"]], [["297.256"], ["101.3"], ["632.8"], ["1.4219", "0.0004"]]], "solvent": null, "footer": "", "constr": [], "ref": {"full": "Wang, M.; Yin, T.; Xu, C.; Chen, Z.; Shen, W. (2014) J. Chem. Eng. Data 59(11), 3389-3396.", "title": "Liquid Liquid Phase Equilibrium and Heat Capacity of Binary Mixture 1-Ethyl-3-methylimidazolium Bis(trifluoromethylsulfonyl)imide + 1-Propanol"}, "phases": ["Liquid"]}