{"components": [{"sample": [["Source:", "commercial source"], ["Initial purification:", "stated by supplier"], ["Initial purity:", "99 mass %"], ["Final purification:", "Karl Fischer titration;ion chromatography"], ["Final purity:", "0.005 water mass %;0.01 halide impurity mass %"]], "formula": "C<SUB>14</SUB>H<SUB>15</SUB>F<SUB>18</SUB>N<SUB>2</SUB>P", "name": "1-butyl-3-methylimidazolium tris(pentafluoroethyl)trifluorophosphate", "idout": "ACISwI", "mw": "584.23"}], "title": "Refraction, surface tension, and speed of sound: Refractive index (Na D-line)", "dhead": [["Temperature, K", null], ["Pressure, kPa", null], ["Refractive index (Na D-line)", "Liquid"]], "solvent": null, "data": [[["283.15"], ["100"], ["1.38097", "0.00043"]], [["293.15"], ["100"], ["1.37859", "0.00043"]], [["303.15"], ["100"], ["1.37544", "0.00043"]], [["313.15"], ["100"], ["1.37093", "0.00043"]], [["323.15"], ["100"], ["1.3648", "0.00043"]], [["333.15"], ["100"], ["1.35712", "0.00043"]], [["343.15"], ["100"], ["1.34651", "0.00043"]], [["353.15"], ["100"], ["1.33517", "0.00043"]]], "footer": "", "expmeth": "Standard Abbe refractometry", "constr": [], "ref": {"title": "Thermophysical Properties of 1-Butyl-3-methylimidazolium tris(pentafluoroethyl)trifluorophosphate, [C4mim][(C2F5)3PF3], and of Its IoNanofluid with Multi-Walled Carbon Nanotubes", "full": "de Castro, C. A. N.; Ribeiro, A. P. d. C.; Figueiras, A. O.; Langa, E.; Vieira, S. I. C.; Lourenco, M. J. V.; Santos, A. F. S. d.; Santos, F. J. V. d.; Lampreia, I. M. S.; Goodrich, P.; Hardacre, C. (2021) J. Chem. Eng. Data 66(4), 1717-1729."}, "phases": ["Liquid"]}