{"expmeth": "Minimum Deviation", "data": [[["85"], ["288.805"], ["632.8"], ["1.4343", "0.0003"]], [["85"], ["290.85"], ["632.8"], ["1.4338", "0.0003"]], [["85"], ["292.914"], ["632.8"], ["1.4332", "0.0003"]], [["85"], ["294.952"], ["632.8"], ["1.4327", "0.0003"]], [["85"], ["297.002"], ["632.8"], ["1.4321", "0.0003"]], [["85"], ["297.743"], ["632.8"], ["1.4319", "0.0003"]], [["85"], ["299.055"], ["632.8"], ["1.4316", "0.0003"]], [["85"], ["299.314"], ["632.8"], ["1.4315", "0.0003"]], [["85"], ["300.78"], ["632.8"], ["1.4312", "0.0003"]], [["85"], ["301.112"], ["632.8"], ["1.431", "0.0003"]], [["85"], ["302.298"], ["632.8"], ["1.4307", "0.0003"]], [["85"], ["303.204"], ["632.8"], ["1.4304", "0.0003"]], [["85"], ["303.836"], ["632.8"], ["1.4303", "0.0003"]], [["85"], ["305.319"], ["632.8"], ["1.4299", "0.0003"]], [["85"], ["306.843"], ["632.8"], ["1.4295", "0.0003"]], [["85"], ["308.346"], ["632.8"], ["1.429", "0.0003"]]], "solvent": null, "footer": "", "dhead": [["Pressure, kPa", null], ["Temperature, K", null], ["Wavelength, A", "Liquid"], ["Refractive index", "Liquid"]], "components": [{"idout": "ABCNhW", "mw": "282.13", "name": "1-methyl-3-octylimidazolium tetrafluoroborate", "formula": "C<SUB>12</SUB>H<SUB>23</SUB>BF<SUB>4</SUB>N<SUB>2</SUB>", "sample": [["Source:", "commercial source"], ["Initial purification:", "stated by supplier"], ["Initial purity:", "99 mass %"], ["Final purification:", "Karl Fischer titration"], ["Final purity:", "0.0158 water mass %(dried in a desiccator;dried by vacuum heating)"]]}], "title": "Refraction, surface tension, and speed of sound: Refractive index", "phases": ["Liquid"], "ref": {"title": "Measurements of the liquid liquid phase equilibria of binary solutions of 1-methyl-3-octylimidazolium tetrafluoroborate with 1-heptanol or 2-pentanol", "full": "Zhang, X.; Cui, Z.; Yin, T.; Zheng, P.; Zhao, J. (2015) Fluid Phase Equilib. 394, 156-164."}, "constr": []}