{"components": [{"sample": [["Source:", "commercial source"], ["Purification:", "stated by supplier"], ["Purity:", "99 % (basis not specified)"], ["Purity analysis:", "dried with chemical reagent"]], "name": "1-ethyl-3-methylimidazolium ethyl sulfate", "formula": "C<SUB>8</SUB>H<SUB>16</SUB>N<SUB>2</SUB>O<SUB>4</SUB>S", "mw": "236.29", "idout": "AAtWDT"}], "title": "Refraction, surface tension, and speed of sound: Refractive index (Na D-line)", "dhead": [["Temperature, K", null], ["Pressure, kPa", null], ["Refractive index (Na D-line)", "Liquid"]], "data": [[["298.2"], ["101.325"], ["1.476", "0.0008"]]], "solvent": null, "footer": "", "expmeth": "Standard Abbe refractometry", "constr": [], "ref": {"full": "Ros, A. P. d. l.; Fernndez, F. J. H.; Gmez, D.; Rubio, M.; Vllora, G. (2012) Sep. Sci. Technol. 47(2), 300-311.", "title": "(Liquid +Liquid) Equilibrium for Ternary Systems Containing of an Ionic Liquid, n-Hexane and an Organic Compound Involved in the Kinetic Resolution ofrac-2-Pentanol"}, "phases": ["Liquid"]}