{"dhead": [["Temperature, K", null], ["Pressure, kPa", null], ["Refractive index (Na D-line)", "Liquid"]], "components": [{"mw": "247.18", "idout": "AAvbcc", "name": "1-hexyl-3-methyl-1H-imidazolium bromide", "formula": "C<SUB>10</SUB>H<SUB>19</SUB>BrN<SUB>2</SUB>", "sample": [["Source:", "synthesized by the authors"], ["Purification:", "Karl Fischer titration;NMR (proton)"], ["Purity:", "0.0560 water mass %;97 mass %(dried by vacuum heating;solvent extraction)"]]}], "title": "Refraction, surface tension, and speed of sound: Refractive index (Na D-line)", "expmeth": "Standard Abbe refractometry", "data": [[["288.15"], ["86.5"], ["1.5282", "0.0012"]], [["293.15"], ["86.5"], ["1.5268", "0.0012"]], [["298.15"], ["86.5"], ["1.5254", "0.0012"]], [["303.15"], ["86.5"], ["1.5237", "0.0012"]]], "solvent": null, "footer": "", "ref": {"full": "Shekaari, H.; Zafarani-Moattar, M. T.; Niknam, M. (2016) J. Chem. Thermodyn. 97, 100-112.", "title": "Thermodynamic behavior of thiophene with octane, 1-hexyl-3-methylimidazolium bromide, or 1-octyl-3-methylimidazolium bromide in dilute region at T = (288.15 to 303.15) K"}, "constr": [], "phases": ["Liquid"]}