{"ref": {"title": "Physiochemical Properties and Molecular Dynamics Simulations of Phosphonium and Ammonium Based Deep Eutectic Solvents", "full": "Naik, P. K.; Paul, S.; Banerjee, T. (2019) J. Solution Chem. 48(7), 1046-1065."}, "constr": [], "phases": ["Liquid"], "title": "Refraction, surface tension, and speed of sound: Refractive index (Na D-line)", "components": [{"formula": "C<SUB>19</SUB>H<SUB>18</SUB>BrP", "name": "methyltriphenylphosphonium bromide", "idout": "ABQkxU", "mw": "357.23", "sample": [["Source:", "commercial source"], ["Purification:", "stated by supplier"], ["Purity:", "99 mass %"]]}, {"sample": [["Source:", "commercial source"], ["Initial purification:", "stated by supplier"], ["Initial purity:", "98 mass %"], ["Final purification:", "Karl Fischer titration"], ["Final purity:", "0.000068 water mass %"]], "idout": "AARkmK", "mw": "92.09", "formula": "C<SUB>3</SUB>H<SUB>8</SUB>O<SUB>3</SUB>", "name": "glycerol"}], "dhead": [["Mole fraction of methyltriphenylphosphonium bromide", "Liquid"], ["Pressure, kPa", null], ["Temperature, K", null], ["Refractive index (Na D-line)", "Liquid"]], "footer": "", "data": [[["0.2"], ["101.3"], ["298"], ["1.55", "0.01"]]], "solvent": null, "expmeth": "Standard Abbe refractometry"}