{"constr": [], "ref": {"title": "Influence of temperature on molecular interactions of imidazolium-based ionic liquids with acetophenone: thermodynamic properties and quantum chemical studies", "full": "Bahadur, Indra; Kgomotso, Masilo; Ebenso, Eno E.; Redhi, Gan (2016) RSC Adv. 6(106), 104708-104723."}, "phases": ["Liquid"], "title": "Refraction, surface tension, and speed of sound: Refractive index (Na D-line)", "components": [{"name": "1-butyl-3-methylimidazolium hexafluorophosphate", "formula": "C<SUB>8</SUB>H<SUB>15</SUB>F<SUB>6</SUB>N<SUB>2</SUB>P", "idout": "ABChJv", "mw": "284.19", "sample": [["Source:", "commercial source"], ["Initial purification:", "stated by supplier"], ["Initial purity:", "99 % (basis not specified)"], ["Final purification:", "Karl Fischer titration"], ["Final purity:", "0.06 water mass %"]]}], "dhead": [["Temperature, K", null], ["Pressure, kPa", null], ["Refractive index (Na D-line)", "Liquid"]], "footer": "", "data": [[["293.15"], ["100"], ["1.411", "0.01"]], [["303.15"], ["100"], ["1.408", "0.01"]], [["313.15"], ["100"], ["1.406", "0.01"]], [["323.15"], ["100"], ["1.403", "0.01"]], [["333.15"], ["100"], ["1.4", "0.01"]]], "solvent": null, "expmeth": "Standard Abbe refractometry"}