{"expmeth": "Standard Abbe refractometry", "data": [[["288.15"], ["101.325"], ["1.44405", "0.00037"]], [["290.65"], ["101.325"], ["1.44331", "0.00037"]], [["293.15"], ["101.325"], ["1.44256", "0.00037"]], [["295.65"], ["101.325"], ["1.44183", "0.00037"]], [["298.15"], ["101.325"], ["1.44107", "0.00037"]], [["300.65"], ["101.325"], ["1.44032", "0.00037"]], [["303.15"], ["101.325"], ["1.43958", "0.00037"]], [["305.65"], ["101.325"], ["1.43885", "0.00037"]], [["308.15"], ["101.325"], ["1.43811", "0.00037"]], [["310.65"], ["101.325"], ["1.43737", "0.00037"]], [["313.15"], ["101.325"], ["1.43663", "0.00037"]], [["315.65"], ["101.325"], ["1.43588", "0.00037"]], [["318.15"], ["101.325"], ["1.43515", "0.00037"]], [["320.65"], ["101.325"], ["1.43442", "0.00037"]], [["323.15"], ["101.325"], ["1.43366", "0.00037"]], [["325.65"], ["101.325"], ["1.43294", "0.00037"]], [["328.15"], ["101.325"], ["1.43222", "0.00037"]], [["330.65"], ["101.325"], ["1.43147", "0.00037"]], [["333.15"], ["101.325"], ["1.43075", "0.00037"]], [["335.65"], ["101.325"], ["1.43003", "0.00037"]], [["338.15"], ["101.325"], ["1.4293", "0.00037"]]], "solvent": null, "footer": "", "dhead": [["Temperature, K", null], ["Pressure, kPa", null], ["Refractive index (Na D-line)", "Liquid"]], "components": [{"name": "1-ethylpyridinium bis[(trifluoromethyl)sulfonyl]imide", "formula": "C<SUB>9</SUB>H<SUB>10</SUB>F<SUB>6</SUB>N<SUB>2</SUB>O<SUB>4</SUB>S<SUB>2</SUB>", "mw": "388.30", "idout": "ABWiWC", "sample": [["Source:", "commercial source"], ["Initial purification:", "stated by supplier"], ["Initial purity:", "99 mass %"], ["Final purification:", "Karl Fischer titration;NMR "], ["Final purity:", "0.025 water mass %;0.01 halide impurity mass %(dried in a desiccator;dried by vacuum heating)"]]}], "title": "Refraction, surface tension, and speed of sound: Refractive index (Na D-line)", "phases": ["Liquid"], "ref": {"title": "Physicochemical Study of n-Ethylpyridinium bis(trifluoromethylsulfonyl)imide Ionic Liq", "full": "Benito, J.; Garcia-Mardones, M.; Perez-Gregorio, V.; Gascon, I.; Lafuente, C. (2014) J. Solution Chem. 43, 696-710."}, "constr": []}