{"solvent": null, "data": [[["293.58"], ["101.325"], ["1.41182", "0.00055"]], [["296.17"], ["101.325"], ["1.40973", "0.00055"]], [["298.2"], ["101.325"], ["1.4079", "0.00055"]], [["299.69"], ["101.325"], ["1.40644", "0.00055"]], [["300.65"], ["101.325"], ["1.40525", "0.00055"]], [["301.43"], ["101.325"], ["1.40407", "0.00055"]], [["301.87"], ["101.325"], ["1.40326", "0.00055"]], [["301.98"], ["101.325"], ["1.40314", "0.00055"]], [["302.37"], ["101.325"], ["1.40211", "0.00055"]], [["302.56"], ["101.325"], ["1.40165", "0.00055"]], [["302.69"], ["101.325"], ["1.4012", "0.00055"]], [["302.8"], ["101.325"], ["1.40075", "0.00055"]], [["302.89"], ["101.325"], ["1.40041", "0.00055"]], [["302.93"], ["101.325"], ["1.40008", "0.00055"]], [["302.98"], ["101.325"], ["1.39975", "0.00055"]], [["303.02"], ["101.325"], ["1.39953", "0.00056"]], [["303.04"], ["101.325"], ["1.39909", "0.00059"]]], "footer": "", "expmeth": "minimum beam deflection method", "components": [{"mw": "74.12", "idout": "AAONLE", "name": "butan-2-ol", "formula": "C<SUB>4</SUB>H<SUB>10</SUB>O", "sample": [["Source:", "commercial source"], ["Purification:", "stated by supplier"], ["Purity:", "99.5 % (basis not specified)"], ["Purity analysis:", "none used"]]}, {"sample": [["Source:", "commercial source"], ["Purity analysis:", "dried in a desiccator;dried by vacuum heating"]], "idout": "AAwscj", "mw": "254.08", "name": "1-hexyl-3-methylimidazolium tetrafluoroborate", "formula": "C<SUB>10</SUB>H<SUB>19</SUB>BF<SUB>4</SUB>N<SUB>2</SUB>"}], "title": "Refraction, surface tension, and speed of sound: Refractive index (Na D-line)", "dhead": [["Temperature, K", null], ["Pressure, kPa", null], ["Refractive index (Na D-line)", "Liquid mixture 2"]], "phases": ["Liquid mixture 2", "Liquid mixture 1"], "ref": {"full": "Wagner, M.; Stanga, O.; Schroer, W. (2004) Phys. Chem. Chem. Phys. 6(18), 4421-4431.", "title": "The liquid liquid coexistence of binary mixtures of the room temperature ionic liquid 1-methyl-3-hexylimidazolium tetrafluoroborate with alcohols"}, "constr": []}