{"title": "Refraction, surface tension, and speed of sound: Refractive index (Na D-line)", "components": [{"name": "1,2-dimethoxyethane", "formula": "C<SUB>4</SUB>H<SUB>10</SUB>O<SUB>2</SUB>", "idout": "AARRYu", "mw": "90.12", "sample": [["Source:", "commercial source"], ["Purification:", "stated by supplier"], ["Purity:", "99 mol %"], ["Purity analysis:", "none used"]]}, {"mw": "284.19", "idout": "ABChJv", "name": "1-butyl-3-methylimidazolium hexafluorophosphate", "formula": "C<SUB>8</SUB>H<SUB>15</SUB>F<SUB>6</SUB>N<SUB>2</SUB>P", "sample": [["Source:", "commercial source"], ["Initial purification:", "stated by supplier"], ["Initial purity:", "98 mol %"], ["Final purification:", "Karl Fischer titration"], ["Final purity:", "0.01 water mass %(de-gassed by evacuation;dried by vacuum heating)"]]}], "dhead": [["Mole fraction of 1-butyl-3-methylimidazolium hexafluorophosphate", "Liquid"], ["Pressure, kPa", null], ["Temperature, K", null], ["Refractive index (Na D-line)", "Liquid"]], "footer": "", "data": [[["0"], ["101"], ["298.15"], ["1.379", "0.0013"]], [["0.0041"], ["101"], ["298.15"], ["1.3781", "0.0013"]], [["0.0125"], ["101"], ["298.15"], ["1.3798", "0.0013"]], [["0.0416"], ["101"], ["298.15"], ["1.3859", "0.0013"]], [["0.1055"], ["101"], ["298.15"], ["1.3926", "0.0013"]], [["0.1219"], ["101"], ["298.15"], ["1.3941", "0.0013"]], [["0.2474"], ["101"], ["298.15"], ["1.4009", "0.0013"]], [["0.3744"], ["101"], ["298.15"], ["1.4043", "0.0013"]], [["0.4937"], ["101"], ["298.15"], ["1.4062", "0.0013"]], [["0.7092"], ["101"], ["298.15"], ["1.4076", "0.0013"]], [["0.9329"], ["101"], ["298.15"], ["1.4087", "0.0013"]], [["1"], ["101"], ["298.15"], ["1.4089", "0.0013"]]], "solvent": null, "expmeth": "Standard Abbe refractometry", "constr": [], "ref": {"full": "Kumar, A.; Singh, T.; Gardas, R. L.; Coutinho, J. A. P. (2008) J. Chem. Thermodyn. 40(1), 32-39.", "title": "Non-ideal behaviour of a room temperature ionic liquid in an alkoxyethanol or poly ethers at T = (298.15 to 318.15) K"}, "phases": ["Liquid"]}