{"expmeth": "Standard Abbe refractometry", "data": [[["303.15"], ["101.325"], ["1.40779", "0.0011"]], [["308.15"], ["101.325"], ["1.40647", "0.0011"]], [["313.15"], ["101.325"], ["1.40512", "0.0011"]], [["318.15"], ["101.325"], ["1.40371", "0.0011"]], [["323.15"], ["101.325"], ["1.40234", "0.0011"]]], "solvent": null, "footer": "", "dhead": [["Temperature, K", null], ["Pressure, kPa", null], ["Refractive index (Na D-line)", "Liquid"]], "components": [{"mw": "284.19", "idout": "ABChJv", "formula": "C<SUB>8</SUB>H<SUB>15</SUB>F<SUB>6</SUB>N<SUB>2</SUB>P", "name": "1-butyl-3-methylimidazolium hexafluorophosphate", "sample": [["Source:", "commercial source"], ["Initial purification:", "stated by supplier"], ["Initial purity:", "99 mass %"], ["Final purification:", "Karl Fischer titration"], ["Final purity:", "0.015 water mass %(de-gassed by evacuation;dried by vacuum heating)"]]}], "title": "Refraction, surface tension, and speed of sound: Refractive index (Na D-line)", "phases": ["Liquid"], "constr": [], "ref": {"full": "Rao, V. S.; Reddy, M. S.; Raju, K. T. S. S.; Rani, B. L.; Babu, B. H. (2018) J. Solution Chem. 47(3), 430-448.", "title": "The Study of Solute-Solvent Interactions in 1-Butyl-3-Methylimidazolium Hexafluorophosphate + 2-Pyrrolidone from Volumetric, Acoustic, Optical and Spectral Properties"}}