{"ref": {"full": "Wang, Guoxi; Zhou, Chenming; Xing, Zheng; Wang, Xin; Zhang, Xinyuan; Zhang, Qingguo (2023) J. Solution Chem. 52, 467-86.", "title": "Thermodynamic Properties and Intermolecular Interacting Behaviors of Amino.Functionalized Ionic Liquid Binary Mixtures of 1.Aminopropyl.3.methylimidazolium Tetrafluoroborate with Dimethyl Sulfoxide and Acetonitrile"}, "constr": [], "phases": ["Liquid"], "dhead": [["Temperature, K", null], ["Mole fraction of 1-(3-aminopropyl)-3-methyl-1H-imidazolium tetrafluoroborate", "Liquid"], ["Pressure, kPa", null], ["Refractive index (Na D-line)", "Liquid"]], "components": [{"name": "1-(3-aminopropyl)-3-methyl-1H-imidazolium tetrafluoroborate", "formula": "C<SUB>7</SUB>H<SUB>14</SUB>BF<SUB>4</SUB>N<SUB>3</SUB>", "idout": "AAriGj", "mw": "227.01", "sample": [["Source:", "synthesized by the authors"], ["Initial purification:", "estimated by the compiler"], ["Initial purity:", "99 mol %"], ["Final purification:", "Karl Fischer titration"], ["Final purity:", "0.03 water mass %"]]}, {"sample": [["Source:", "synthesized by the authors"], ["Purification:", "stated by supplier"], ["Purity:", "99 mass %"]], "mw": "41.05", "idout": "AAHueB", "name": "acetonitrile", "formula": "C<SUB>2</SUB>H<SUB>3</SUB>N"}], "title": "Refraction, surface tension, and speed of sound: Refractive index (Na D-line)", "expmeth": "Standard Abbe refractometry", "solvent": null, "data": [[["288.15"], ["0"], ["101"], ["1.3438", "0.0005"]], [["288.15"], ["0.1001"], ["101"], ["1.3549", "0.0005"]], [["288.15"], ["0.2005"], ["101"], ["1.3667", "0.0005"]], [["288.15"], ["0.3"], ["101"], ["1.3782", "0.0005"]], [["288.15"], ["0.399"], ["101"], ["1.3903", "0.0005"]], [["288.15"], ["0.4996"], ["101"], ["1.4021", "0.0005"]], [["288.15"], ["0.598"], ["101"], ["1.4138", "0.0005"]], [["288.15"], ["0.6975"], ["101"], ["1.4245", "0.0005"]], [["288.15"], ["0.7983"], ["101"], ["1.435", "0.0005"]], [["288.15"], ["0.8987"], ["101"], ["1.444", "0.0005"]], [["288.15"], ["1"], ["101"], ["1.452", "0.0005"]], [["293.15"], ["0"], ["101"], ["1.3425", "0.0005"]], [["293.15"], ["0.1001"], ["101"], ["1.3538", "0.0005"]], [["293.15"], ["0.2005"], ["101"], ["1.3656", "0.0005"]], [["293.15"], ["0.3"], ["101"], ["1.3773", "0.0005"]], [["293.15"], ["0.399"], ["101"], ["1.3895", "0.0005"]], [["293.15"], ["0.4996"], ["101"], ["1.4013", "0.0005"]], [["293.15"], ["0.598"], ["101"], ["1.4129", "0.0005"]], [["293.15"], ["0.6975"], ["101"], ["1.4237", "0.0005"]], [["293.15"], ["0.7983"], ["101"], ["1.4341", "0.0005"]], [["293.15"], ["0.8987"], ["101"], ["1.443", "0.0005"]], [["293.15"], ["1"], ["101"], ["1.451", "0.0005"]], [["298.15"], ["0"], ["101"], ["1.3411", "0.0005"]], [["298.15"], ["0.1001"], ["101"], ["1.3526", "0.0005"]], [["298.15"], ["0.2005"], ["101"], ["1.3644", "0.0005"]], [["298.15"], ["0.3"], ["101"], ["1.3764", "0.0005"]], [["298.15"], ["0.399"], ["101"], ["1.3886", "0.0005"]], [["298.15"], ["0.4996"], ["101"], ["1.4005", "0.0005"]], [["298.15"], ["0.598"], ["101"], ["1.412", "0.0005"]], [["298.15"], ["0.6975"], ["101"], ["1.4229", "0.0005"]], [["298.15"], ["0.7983"], ["101"], ["1.4332", "0.0005"]], [["298.15"], ["0.8987"], ["101"], ["1.4422", "0.0005"]], [["298.15"], ["1"], ["101"], ["1.4499", "0.0005"]], [["303.15"], ["0"], ["101"], ["1.3398", "0.0005"]], [["303.15"], ["0.1001"], ["101"], ["1.3515", "0.0005"]], [["303.15"], ["0.2005"], ["101"], ["1.3633", "0.0005"]], [["303.15"], ["0.3"], ["101"], ["1.3755", "0.0005"]], [["303.15"], ["0.399"], ["101"], ["1.3877", "0.0005"]], [["303.15"], ["0.4996"], ["101"], ["1.3997", "0.0005"]], [["303.15"], ["0.598"], ["101"], ["1.4112", "0.0005"]], [["303.15"], ["0.6975"], ["101"], ["1.4221", "0.0005"]], [["303.15"], ["0.7983"], ["101"], ["1.4323", "0.0005"]], [["303.15"], ["0.8987"], ["101"], ["1.4413", "0.0005"]], [["303.15"], ["1"], ["101"], ["1.4489", "0.0005"]], [["308.15"], ["0"], ["101"], ["1.3384", "0.0005"]], [["308.15"], ["0.1001"], ["101"], ["1.3503", "0.0005"]], [["308.15"], ["0.2005"], ["101"], ["1.3623", "0.0005"]], [["308.15"], ["0.3"], ["101"], ["1.3745", "0.0005"]], [["308.15"], ["0.399"], ["101"], ["1.3867", "0.0005"]], [["308.15"], ["0.4996"], ["101"], ["1.3989", "0.0005"]], [["308.15"], ["0.598"], ["101"], ["1.4104", "0.0005"]], [["308.15"], ["0.6975"], ["101"], ["1.4213", "0.0005"]], [["308.15"], ["0.7983"], ["101"], ["1.4314", "0.0005"]], [["308.15"], ["0.8987"], ["101"], ["1.4404", "0.0005"]], [["308.15"], ["1"], ["101"], ["1.4479", "0.0005"]], [["313.15"], ["0"], ["101"], ["1.3371", "0.0005"]], [["313.15"], ["0.1001"], ["101"], ["1.3491", "0.0005"]], [["313.15"], ["0.2005"], ["101"], ["1.3612", "0.0005"]], [["313.15"], ["0.3"], ["101"], ["1.3735", "0.0005"]], [["313.15"], ["0.399"], ["101"], ["1.3858", "0.0005"]], [["313.15"], ["0.4996"], ["101"], ["1.3981", "0.0005"]], [["313.15"], ["0.598"], ["101"], ["1.4095", "0.0005"]], [["313.15"], ["0.6975"], ["101"], ["1.4205", "0.0005"]], [["313.15"], ["0.7983"], ["101"], ["1.4305", "0.0005"]], [["313.15"], ["0.8987"], ["101"], ["1.4396", "0.0005"]], [["313.15"], ["1"], ["101"], ["1.4468", "0.0005"]], [["318.15"], ["0"], ["101"], ["1.3357", "0.0005"]], [["318.15"], ["0.1001"], ["101"], ["1.3479", "0.0005"]], [["318.15"], ["0.2005"], ["101"], ["1.3602", "0.0005"]], [["318.15"], ["0.3"], ["101"], ["1.3726", "0.0005"]], [["318.15"], ["0.399"], ["101"], ["1.3849", "0.0005"]], [["318.15"], ["0.4996"], ["101"], ["1.3972", "0.0005"]], [["318.15"], ["0.598"], ["101"], ["1.4087", "0.0005"]], [["318.15"], ["0.6975"], ["101"], ["1.4197", "0.0005"]], [["318.15"], ["0.7983"], ["101"], ["1.4297", "0.0005"]], [["318.15"], ["0.8987"], ["101"], ["1.4388", "0.0005"]], [["318.15"], ["1"], ["101"], ["1.4458", "0.0005"]], [["323.15"], ["0"], ["101"], ["1.3343", "0.0005"]], [["323.15"], ["0.1001"], ["101"], ["1.3466", "0.0005"]], [["323.15"], ["0.2005"], ["101"], ["1.3592", "0.0005"]], [["323.15"], ["0.3"], ["101"], ["1.3716", "0.0005"]], [["323.15"], ["0.399"], ["101"], ["1.3839", "0.0005"]], [["323.15"], ["0.4996"], ["101"], ["1.3963", "0.0005"]], [["323.15"], ["0.598"], ["101"], ["1.4078", "0.0005"]], [["323.15"], ["0.6975"], ["101"], ["1.4188", "0.0005"]], [["323.15"], ["0.7983"], ["101"], ["1.4288", "0.0005"]], [["323.15"], ["0.8987"], ["101"], ["1.4379", "0.0005"]], [["323.15"], ["1"], ["101"], ["1.4447", "0.0005"]]], "footer": ""}