{"expmeth": "Standard Abbe refractometry", "data": [[["298.15"], ["101.325"], ["1.4592", "0.0011"]]], "solvent": null, "footer": "", "dhead": [["Temperature, K", null], ["Pressure, kPa", null], ["Refractive index (Na D-line)", "Liquid"]], "components": [{"mw": "142.16", "idout": "AAbRuq", "formula": "C<SUB>6</SUB>H<SUB>10</SUB>N<SUB>2</SUB>O<SUB>2</SUB>", "name": "1-methylimidazolium acetate", "sample": [["Source:", "synthesized by the authors"], ["Purification:", "Karl Fischer titration;NMR (proton)"], ["Purity:", "0.02 water mass %;99 mass %(dried by vacuum heating)"]]}], "title": "Refraction, surface tension, and speed of sound: Refractive index (Na D-line)", "phases": ["Liquid"], "constr": [], "ref": {"full": "Chen, J.; Chen, L.; Lu, Y.; Xu, Y. (2014) J. Mol. Liq. 197, 374-380.", "title": "Physicochemical properties of aqueous solution of 1-methylimidazolium acetate ionic liquid at several temperatures"}}