{"title": "Refraction, surface tension, and speed of sound: Refractive index (Na D-line)", "components": [{"name": "1-hexyl-3-methylimidazolium hexafluorophosphate", "formula": "C<SUB>10</SUB>H<SUB>19</SUB>F<SUB>6</SUB>N<SUB>2</SUB>P", "idout": "ABICIG", "mw": "312.24", "sample": [["Source:", "commercial source"], ["Initial purification:", "stated by supplier"], ["Initial purity:", "99 mass %"], ["Final purification:", "Karl Fischer titration"], ["Final purity:", "0.0155 water mass %(dried by vacuum heating)"]]}], "dhead": [["Temperature, K", null], ["Pressure, kPa", null], ["Refractive index (Na D-line)", "Liquid"]], "footer": "", "data": [[["293.15"], ["101.325"], ["1.41884", "0.00037"]], [["298.15"], ["101.325"], ["1.41756", "0.00037"]], [["303.15"], ["101.325"], ["1.41626", "0.00037"]], [["308.15"], ["101.325"], ["1.41495", "0.00037"]], [["313.15"], ["101.325"], ["1.41364", "0.00037"]], [["318.15"], ["101.325"], ["1.41235", "0.00037"]], [["323.15"], ["101.325"], ["1.41103", "0.00037"]], [["328.15"], ["101.325"], ["1.40976", "0.00037"]], [["333.15"], ["101.325"], ["1.4084", "0.00037"]], [["338.15"], ["101.325"], ["1.4072", "0.00037"]], [["343.15"], ["101.325"], ["1.40583", "0.00037"]]], "solvent": null, "expmeth": "Standard Abbe refractometry", "constr": [], "ref": {"title": "Effect of temperature on the physical properties of 1-butyl-3-methylimidazolium based ionic liquids with thiocyanate and tetrafluoroborate anions, and 1-hexyl-3-methylimidazolium with tetrafluoroborate and hexafluorophosphate anions", "full": "Vakili-Nezhaad, G.; Vatani, M.; Asghari, M.; Ashour, I. (2012) J. Chem. Thermodyn. 54, 148-154."}, "phases": ["Liquid"]}