{"title": "Refraction, surface tension, and speed of sound: Refractive index (Na D-line)", "components": [{"sample": [["Source:", "commercial source"], ["Initial purification:", "stated by supplier"], ["Initial purity:", "98 mass %"], ["Final purification:", "Karl Fischer titration"], ["Final purity:", "0.01 water mass %(dried by vacuum heating)"]], "name": "1-methyl-1-propylpyrrolidinium bis[(trifluoromethyl)sulfonyl]imide", "formula": "C<SUB>10</SUB>H<SUB>18</SUB>F<SUB>6</SUB>N<SUB>2</SUB>O<SUB>4</SUB>S<SUB>2</SUB>", "idout": "ABabds", "mw": "408.37"}], "dhead": [["Temperature, K", null], ["Pressure, kPa", null], ["Refractive index (Na D-line)", "Liquid"]], "footer": "", "data": [[["283.15"], ["101.325"], ["1.42474", "0.00063"]], [["288.15"], ["101.325"], ["1.42336", "0.00063"]], [["293.15"], ["101.325"], ["1.42201", "0.00063"]], [["298.15"], ["101.325"], ["1.42064", "0.00063"]], [["303.15"], ["101.325"], ["1.41925", "0.00063"]], [["308.15"], ["101.325"], ["1.41792", "0.00063"]], [["313.15"], ["101.325"], ["1.41656", "0.00063"]], [["318.15"], ["101.325"], ["1.41519", "0.00063"]], [["323.15"], ["101.325"], ["1.41389", "0.00063"]], [["328.15"], ["101.325"], ["1.41252", "0.00063"]], [["333.15"], ["101.325"], ["1.41119", "0.00063"]], [["338.15"], ["101.325"], ["1.40986", "0.00063"]], [["343.15"], ["101.325"], ["1.40853", "0.00063"]], [["348.15"], ["101.325"], ["1.40718", "0.00062"]], [["353.15"], ["101.325"], ["1.40589", "0.00062"]]], "solvent": null, "expmeth": "Standard Abbe refractometry", "constr": [], "ref": {"title": "Comprehensive Refractive Index Property for Room-Temperature Ionic Liquids", "full": "Seki, S.; Tsuzuki, S.; Hayamizu, K.; Umebayashi, Y.; Serizawa, N.; Takei, K.; Miyashiro, H. (2012) J. Chem. Eng. Data 57(8), 2211-2216."}, "phases": ["Liquid"]}