{"components": [{"sample": [["Source:", "commercial source"], ["Initial purification:", "stated by supplier"], ["Initial purity:", "98 mass %"], ["Final purification:", "Karl Fischer titration"], ["Final purity:", "0.02 water mass %"]], "mw": "170.21", "idout": "AAgmaR", "formula": "C<SUB>8</SUB>H<SUB>14</SUB>N<SUB>2</SUB>O<SUB>2</SUB>", "name": "1-ethyl-3-methylimidazolium acetate"}, {"idout": "AASYDH", "mw": "96.08", "formula": "C<SUB>5</SUB>H<SUB>4</SUB>O<SUB>2</SUB>", "name": "2-furaldehyde", "sample": [["Source:", "commercial source"], ["Initial purification:", "stated by supplier"], ["Initial purity:", "98 mass %"], ["Final purification:", "Karl Fischer titration"], ["Final purity:", "0.80 water mass %"]]}], "title": "Refraction, surface tension, and speed of sound: Refractive index (Na D-line)", "dhead": [["Temperature, K", null], ["Mole fraction of 1-ethyl-3-methylimidazolium acetate", "Liquid"], ["Pressure, kPa", null], ["Refractive index (Na D-line)", "Liquid"]], "data": [[["298.15"], ["0"], ["100"], ["1.52311", "0.00055"]], [["298.15"], ["0.0925"], ["100"], ["1.52707", "0.00055"]], [["298.15"], ["0.1724"], ["100"], ["1.53221", "0.00055"]], [["298.15"], ["0.2486"], ["100"], ["1.53812", "0.00055"]], [["298.15"], ["0.5006"], ["100"], ["1.54083", "0.00055"]], [["298.15"], ["0.599"], ["100"], ["1.53551", "0.00055"]], [["298.15"], ["0.6954"], ["100"], ["1.5279", "0.00055"]], [["298.15"], ["0.7763"], ["100"], ["1.52088", "0.00055"]], [["298.15"], ["0.8488"], ["100"], ["1.51288", "0.00055"]], [["298.15"], ["0.9135"], ["100"], ["1.50712", "0.00055"]], [["298.15"], ["0.941"], ["100"], ["1.50491", "0.00055"]], [["298.15"], ["0.973"], ["100"], ["1.50183", "0.00055"]], [["298.15"], ["1"], ["100"], ["1.49971", "0.00055"]], [["303.15"], ["0"], ["100"], ["1.52046", "0.00055"]], [["303.15"], ["0.0925"], ["100"], ["1.52461", "0.00055"]], [["303.15"], ["0.1724"], ["100"], ["1.53005", "0.00055"]], [["303.15"], ["0.2486"], ["100"], ["1.53609", "0.00055"]], [["303.15"], ["0.5006"], ["100"], ["1.53885", "0.00055"]], [["303.15"], ["0.599"], ["100"], ["1.53402", "0.00055"]], [["303.15"], ["0.6954"], ["100"], ["1.52673", "0.00055"]], [["303.15"], ["0.7763"], ["100"], ["1.51904", "0.00055"]], [["303.15"], ["0.8488"], ["100"], ["1.51051", "0.00055"]], [["303.15"], ["0.9135"], ["100"], ["1.50572", "0.00055"]], [["303.15"], ["0.941"], ["100"], ["1.50349", "0.00055"]], [["303.15"], ["0.973"], ["100"], ["1.50043", "0.00055"]], [["303.15"], ["1"], ["100"], ["1.49833", "0.00055"]], [["308.15"], ["0"], ["100"], ["1.51784", "0.00055"]], [["308.15"], ["0.0925"], ["100"], ["1.5222", "0.00055"]], [["308.15"], ["0.1724"], ["100"], ["1.52775", "0.00055"]], [["308.15"], ["0.2486"], ["100"], ["1.53404", "0.00055"]], [["308.15"], ["0.5006"], ["100"], ["1.53704", "0.00055"]], [["308.15"], ["0.599"], ["100"], ["1.53194", "0.00055"]], [["308.15"], ["0.6954"], ["100"], ["1.525", "0.00055"]], [["308.15"], ["0.7763"], ["100"], ["1.51751", "0.00055"]], [["308.15"], ["0.8488"], ["100"], ["1.50925", "0.00055"]], [["308.15"], ["0.9135"], ["100"], ["1.50426", "0.00055"]], [["308.15"], ["0.941"], ["100"], ["1.50205", "0.00055"]], [["308.15"], ["0.973"], ["100"], ["1.49904", "0.00055"]], [["308.15"], ["1"], ["100"], ["1.49693", "0.00055"]], [["313.15"], ["0"], ["100"], ["1.51517", "0.00055"]], [["313.15"], ["0.0925"], ["100"], ["1.51978", "0.00055"]], [["313.15"], ["0.1724"], ["100"], ["1.52555", "0.00055"]], [["313.15"], ["0.2486"], ["100"], ["1.53188", "0.00055"]], [["313.15"], ["0.5006"], ["100"], ["1.53555", "0.00055"]], [["313.15"], ["0.599"], ["100"], ["1.53046", "0.00055"]], [["313.15"], ["0.6954"], ["100"], ["1.52342", "0.00055"]], [["313.15"], ["0.7763"], ["100"], ["1.51587", "0.00055"]], [["313.15"], ["0.8488"], ["100"], ["1.50814", "0.00055"]], [["313.15"], ["0.9135"], ["100"], ["1.50285", "0.00055"]], [["313.15"], ["0.941"], ["100"], ["1.50062", "0.00055"]], [["313.15"], ["0.973"], ["100"], ["1.49764", "0.00055"]], [["313.15"], ["1"], ["100"], ["1.49551", "0.00055"]], [["318.15"], ["0"], ["100"], ["1.51257", "0.00055"]], [["318.15"], ["0.0925"], ["100"], ["1.51739", "0.00055"]], [["318.15"], ["0.1724"], ["100"], ["1.52338", "0.00055"]], [["318.15"], ["0.2486"], ["100"], ["1.52976", "0.00055"]], [["318.15"], ["0.5006"], ["100"], ["1.53395", "0.00055"]], [["318.15"], ["0.599"], ["100"], ["1.52852", "0.00055"]], [["318.15"], ["0.6954"], ["100"], ["1.522", "0.00055"]], [["318.15"], ["0.7763"], ["100"], ["1.51424", "0.00055"]], [["318.15"], ["0.8488"], ["100"], ["1.50698", "0.00055"]], [["318.15"], ["0.9135"], ["100"], ["1.5014", "0.00055"]], [["318.15"], ["0.941"], ["100"], ["1.49927", "0.00055"]], [["318.15"], ["0.973"], ["100"], ["1.49621", "0.00055"]], [["318.15"], ["1"], ["100"], ["1.49413", "0.00055"]]], "solvent": null, "footer": "", "expmeth": "Standard Abbe refractometry", "constr": [], "ref": {"full": "Nduli, M.; Deenadayalu, N. (2017) J. Mol. Liq. 241, 407-421.", "title": "Thermophysical properties of binary mixtures of (methanol or 1-ethyl-3-methylimidazolium acetate + furfural or furfuryl alcohol) at various temperatures"}, "phases": ["Liquid"]}