{"title": "Refraction, surface tension, and speed of sound: Refractive index (Na D-line)", "components": [{"sample": [["Source:", "synthesized by the authors"], ["Purification:", "estimated by the compiler"], ["Purity:", "98 mass %"]], "idout": "ABVbjk", "mw": "382.34", "formula": "C<SUB>8</SUB>H<SUB>16</SUB>F<SUB>6</SUB>N<SUB>2</SUB>O<SUB>4</SUB>S<SUB>2</SUB>", "name": "N,N,N-trimethylpropanaminium bis((trifluoromethyl)sulfonyl)amide"}, {"sample": [["Source:", "synthesized by the authors"], ["Purification:", "estimated by the compiler"], ["Purity:", "98 mass %"]], "name": "1-methyl-1-propylpiperidinium bis(trifluoromethylsulfonyl)imide", "formula": "C<SUB>11</SUB>H<SUB>20</SUB>F<SUB>6</SUB>N<SUB>2</SUB>O<SUB>4</SUB>S<SUB>2</SUB>", "mw": "422.40", "idout": "ABdMCc"}], "dhead": [["Temperature, K", null], ["Mole fraction of N,N,N-trimethylpropanaminium bis((trifluoromethyl)sulfonyl)amide", "Liquid"], ["Pressure, kPa", null], ["Refractive index (Na D-line)", "Liquid"]], "footer": "", "data": [[["283.15"], ["0"], ["101.3"], ["1.4312", "0.0006"]], [["283.15"], ["0.2"], ["101.3"], ["1.4273", "0.0008"]], [["283.15"], ["0.4"], ["101.3"], ["1.4229", "0.0008"]], [["283.15"], ["0.6"], ["101.3"], ["1.4184", "0.0008"]], [["283.15"], ["0.8"], ["101.3"], ["1.4137", "0.0008"]], [["283.15"], ["1"], ["101.3"], ["1.4089", "0.0006"]], [["288.15"], ["0"], ["101.3"], ["1.4297", "0.0006"]], [["288.15"], ["0.2"], ["101.3"], ["1.4259", "0.0008"]], [["288.15"], ["0.4"], ["101.3"], ["1.4215", "0.0008"]], [["288.15"], ["0.6"], ["101.3"], ["1.417", "0.0008"]], [["288.15"], ["0.8"], ["101.3"], ["1.4124", "0.0008"]], [["288.15"], ["1"], ["101.3"], ["1.4076", "0.0006"]], [["293.15"], ["0"], ["101.3"], ["1.4284", "0.0006"]], [["293.15"], ["0.2"], ["101.3"], ["1.4246", "0.0008"]], [["293.15"], ["0.4"], ["101.3"], ["1.4202", "0.0008"]], [["293.15"], ["0.6"], ["101.3"], ["1.4156", "0.0008"]], [["293.15"], ["0.8"], ["101.3"], ["1.411", "0.0008"]], [["293.15"], ["1"], ["101.3"], ["1.4062", "0.0006"]], [["298.15"], ["0"], ["101.3"], ["1.4269", "0.0006"]], [["298.15"], ["0.2"], ["101.3"], ["1.4231", "0.0008"]], [["298.15"], ["0.4"], ["101.3"], ["1.4188", "0.0008"]], [["298.15"], ["0.6"], ["101.3"], ["1.4143", "0.0008"]], [["298.15"], ["0.8"], ["101.3"], ["1.4097", "0.0008"]], [["298.15"], ["1"], ["101.3"], ["1.4049", "0.0006"]], [["303.15"], ["0"], ["101.3"], ["1.4256", "0.0006"]], [["303.15"], ["0.2"], ["101.3"], ["1.4218", "0.0008"]], [["303.15"], ["0.4"], ["101.3"], ["1.4174", "0.0008"]], [["303.15"], ["0.6"], ["101.3"], ["1.4129", "0.0008"]], [["303.15"], ["0.8"], ["101.3"], ["1.4083", "0.0008"]], [["303.15"], ["1"], ["101.3"], ["1.4036", "0.0006"]], [["308.15"], ["0"], ["101.3"], ["1.4242", "0.0006"]], [["308.15"], ["0.2"], ["101.3"], ["1.4204", "0.0008"]], [["308.15"], ["0.4"], ["101.3"], ["1.4161", "0.0008"]], [["308.15"], ["0.6"], ["101.3"], ["1.4116", "0.0008"]], [["308.15"], ["0.8"], ["101.3"], ["1.407", "0.0008"]], [["308.15"], ["1"], ["101.3"], ["1.4022", "0.0006"]], [["313.15"], ["0"], ["101.3"], ["1.4228", "0.0006"]], [["313.15"], ["0.2"], ["101.3"], ["1.4191", "0.0008"]], [["313.15"], ["0.4"], ["101.3"], ["1.4147", "0.0008"]], [["313.15"], ["0.6"], ["101.3"], ["1.4102", "0.0008"]], [["313.15"], ["0.8"], ["101.3"], ["1.4056", "0.0008"]], [["313.15"], ["1"], ["101.3"], ["1.4009", "0.0006"]], [["318.15"], ["0"], ["101.3"], ["1.4214", "0.0006"]], [["318.15"], ["0.2"], ["101.3"], ["1.4177", "0.0008"]], [["318.15"], ["0.4"], ["101.3"], ["1.4133", "0.0008"]], [["318.15"], ["0.6"], ["101.3"], ["1.4089", "0.0008"]], [["318.15"], ["0.8"], ["101.3"], ["1.4043", "0.0008"]], [["318.15"], ["1"], ["101.3"], ["1.3996", "0.0006"]], [["323.15"], ["0"], ["101.3"], ["1.42", "0.0006"]], [["323.15"], ["0.2"], ["101.3"], ["1.4163", "0.0008"]], [["323.15"], ["0.4"], ["101.3"], ["1.412", "0.0008"]], [["323.15"], ["0.6"], ["101.3"], ["1.4076", "0.0008"]], [["323.15"], ["0.8"], ["101.3"], ["1.403", "0.0008"]], [["323.15"], ["1"], ["101.3"], ["1.3983", "0.0006"]], [["328.15"], ["0"], ["101.3"], ["1.4187", "0.0006"]], [["328.15"], ["0.2"], ["101.3"], ["1.415", "0.0008"]], [["328.15"], ["0.4"], ["101.3"], ["1.4107", "0.0008"]], [["328.15"], ["0.6"], ["101.3"], ["1.4062", "0.0008"]], [["328.15"], ["0.8"], ["101.3"], ["1.4017", "0.0008"]], [["328.15"], ["1"], ["101.3"], ["1.397", "0.0006"]], [["333.15"], ["0"], ["101.3"], ["1.4173", "0.0006"]], [["333.15"], ["0.2"], ["101.3"], ["1.4136", "0.0008"]], [["333.15"], ["0.4"], ["101.3"], ["1.4093", "0.0008"]], [["333.15"], ["0.6"], ["101.3"], ["1.4049", "0.0008"]], [["333.15"], ["0.8"], ["101.3"], ["1.4004", "0.0008"]], [["333.15"], ["1"], ["101.3"], ["1.3957", "0.0006"]], [["338.15"], ["0"], ["101.3"], ["1.416", "0.0006"]], [["338.15"], ["0.2"], ["101.3"], ["1.4123", "0.0008"]], [["338.15"], ["0.4"], ["101.3"], ["1.408", "0.0008"]], [["338.15"], ["0.6"], ["101.3"], ["1.4036", "0.0008"]], [["338.15"], ["0.8"], ["101.3"], ["1.3991", "0.0008"]], [["338.15"], ["1"], ["101.3"], ["1.3944", "0.0006"]], [["343.15"], ["0"], ["101.3"], ["1.4146", "0.0006"]], [["343.15"], ["0.2"], ["101.3"], ["1.411", "0.0007"]], [["343.15"], ["0.4"], ["101.3"], ["1.4067", "0.0008"]], [["343.15"], ["0.6"], ["101.3"], ["1.4023", "0.0008"]], [["343.15"], ["0.8"], ["101.3"], ["1.3978", "0.0008"]], [["343.15"], ["1"], ["101.3"], ["1.3931", "0.0006"]], [["348.15"], ["0"], ["101.3"], ["1.4133", "0.0006"]], [["348.15"], ["0.2"], ["101.3"], ["1.4097", "0.0007"]], [["348.15"], ["0.4"], ["101.3"], ["1.4054", "0.0008"]], [["348.15"], ["0.6"], ["101.3"], ["1.401", "0.0008"]], [["348.15"], ["0.8"], ["101.3"], ["1.3965", "0.0008"]], [["348.15"], ["1"], ["101.3"], ["1.3918", "0.0006"]], [["353.15"], ["0"], ["101.3"], ["1.412", "0.0006"]], [["353.15"], ["0.2"], ["101.3"], ["1.4083", "0.0007"]], [["353.15"], ["0.4"], ["101.3"], ["1.4041", "0.0008"]], [["353.15"], ["0.6"], ["101.3"], ["1.3997", "0.0008"]], [["353.15"], ["0.8"], ["101.3"], ["1.3952", "0.0008"]], [["353.15"], ["1"], ["101.3"], ["1.3906", "0.0006"]]], "solvent": null, "expmeth": "Standard Abbe refractometry", "ref": {"full": "Seki, Shiro; Serizawa, Nobuyuki; Ono, Shimpei; Takei, Katsuhito; Hayamizu, Kikuko; Tsuzuki, Seiji; Umebayashi, Yasuhiro (2019) J. Chem. Eng. Data 64(2), 433-441.", "title": "Densities, Viscosities, and Refractive Indices of Binary Room-Temperature Ionic Liquids with Common Cations/Anions"}, "constr": [], "phases": ["Liquid"]}