{"components": [{"mw": "205.26", "idout": "AAnYjG", "name": "1-butyl-3-methylimidazolium dicyanamide", "formula": "C<SUB>10</SUB>H<SUB>15</SUB>N<SUB>5</SUB>", "sample": [["Source:", "commercial source"], ["Purification:", "stated by supplier"], ["Purity:", "98 mass %"], ["Purity analysis:", "dried by vacuum heating"]]}], "title": "Refraction, surface tension, and speed of sound: Refractive index (Na D-line)", "dhead": [["Temperature, K", null], ["Pressure, kPa", null], ["Refractive index (Na D-line)", "Liquid"]], "data": [[["298.15"], ["101.325"], ["1.50943", "0.00053"]]], "solvent": null, "footer": "", "expmeth": "Standard Abbe refractometry", "ref": {"full": "Yebra, Francisco; Troncoso, Jacobo; Romani, Luis (2020) Fluid Phase Equilib. 515, 112573.", "title": "Thermal conductivity of ionic liquids under pressure"}, "constr": [], "phases": ["Liquid"]}