{"phases": ["Liquid"], "ref": {"title": "Solubility and thermodynamics of lamotrigine in ternary mixtures of ionic liquids ([OMIm][Br] + [HMIm][Br] + water) at different temperatures", "full": "Barzegar-Jalali, M.; Jouyban, A.; Martinez, F.; Shekaari, H.; Mirheydari, S. N. (2020) Chin. J. Chem. Eng. 28(1), 198-207."}, "constr": [], "expmeth": "Standard Abbe refractometry", "data": [[["298.15"], ["101.325"], ["1.529", "0.001"]]], "solvent": null, "footer": "", "dhead": [["Temperature, K", null], ["Pressure, kPa", null], ["Refractive index (Na D-line)", "Liquid"]], "components": [{"mw": "247.18", "idout": "AAvbcc", "formula": "C<SUB>10</SUB>H<SUB>19</SUB>BrN<SUB>2</SUB>", "name": "1-hexyl-3-methyl-1H-imidazolium bromide", "sample": [["Source:", "synthesized by the authors"], ["Purification:", "NMR (proton);Karl Fischer titration"], ["Purity:", "98.0 mass %;0.1 water mass %(dried by vacuum heating)"]]}], "title": "Refraction, surface tension, and speed of sound: Refractive index (Na D-line)"}