{"ref": {"full": "Ziyada, A. K.; Wilfred, C. D. (2014) J. Chem. Eng. Data 59(5), 1385-1390.", "title": "Effect of Temperature and Anion on Densities, Viscosities, and Refractive Indices of 1-Octyl-3-propanenitrile Imidazolium-Based Ionic Liquids"}, "constr": [], "phases": ["Liquid"], "components": [{"mw": "471.70", "idout": "ABmlSu", "name": "3-(2-cyanoethyl)-1-octylimidazolium decylsulfate", "formula": "C<SUB>24</SUB>H<SUB>45</SUB>N<SUB>3</SUB>O<SUB>4</SUB>S", "sample": [["Source:", "synthesized by the authors"], ["Purification:", "estimated by the compiler;Karl Fischer titration;ion chromatography"], ["Purity:", "98 % (basis not specified);0.0137 water mass %;0.0053 halide impurity mass %(dried in a desiccator;dried by vacuum heating)"]]}], "title": "Refraction, surface tension, and speed of sound: Refractive index (Na D-line)", "dhead": [["Temperature, K", null], ["Pressure, kPa", null], ["Refractive index (Na D-line)", "Liquid"]], "data": [[["298.15"], ["101.325"], ["1.47928", "0.00066"]], [["303.15"], ["101.325"], ["1.47758", "0.00066"]], [["308.15"], ["101.325"], ["1.47597", "0.00064"]], [["313.15"], ["101.325"], ["1.47454", "0.00065"]], [["318.15"], ["101.325"], ["1.47274", "0.00067"]], [["323.15"], ["101.325"], ["1.47098", "0.00065"]], [["328.15"], ["101.325"], ["1.46963", "0.00065"]], [["333.15"], ["101.325"], ["1.46785", "0.00067"]]], "solvent": null, "footer": "", "expmeth": "Standard Abbe refractometry"}