{"components": [{"formula": "C<SUB>12</SUB>H<SUB>16</SUB>F<SUB>6</SUB>N<SUB>4</SUB>O<SUB>5</SUB>S<SUB>2</SUB>", "name": "3-(2-cyanoethyl)-1-(2-ethoxyethyl)imidazolium bis(trifluoromethanesulfonyl)amide", "idout": "ABnLOR", "mw": "474.39", "sample": [["Source:", "synthesized by the authors"], ["Purity analysis:", "purification method described elsewhere"]]}], "title": "Refraction, surface tension, and speed of sound: Refractive index (Na D-line)", "dhead": [["Temperature, K", null], ["Pressure, kPa", null], ["Refractive index (Na D-line)", "Liquid"]], "data": [[["293"], ["101.325"], ["1.441", "0.01"]], [["303"], ["101.325"], ["1.427", "0.01"]], [["313"], ["101.325"], ["1.424", "0.01"]], [["323"], ["101.325"], ["1.42", "0.01"]], [["333"], ["101.325"], ["1.415", "0.01"]]], "solvent": null, "footer": "", "expmeth": "Standard Abbe refractometry", "ref": {"full": "Venkatraman, V.; Raj, J. J.; Evjen, S.; Lethesh, K. C.; Fiksdahl, A. (2018) J. Mol. Liq. 264, 563-570.", "title": "In silico prediction and experimental verification of ionic liquid refractive indices"}, "constr": [], "phases": ["Liquid"]}