{"constr": [], "ref": {"title": "Physical and excess properties of a room temperature ionic liquid (1-methyl-3-octylimidazolium tetrafluoroborate) with n-alkoxyethanols (C1Em, m = 1 to 3) at T = (298.15 to 318.15) K", "full": "Singh, T.; Kumar, A. (2008) J. Chem. Thermodyn. 40(3), 417-423."}, "phases": ["Liquid"], "components": [{"sample": [["Source:", "commercial source"], ["Initial purification:", "stated by supplier"], ["Initial purity:", "98 mol %"], ["Final purification:", "Karl Fischer titration"], ["Final purity:", "0.01 water mass %(de-gassed by evacuation;dried by vacuum heating)"]], "idout": "ABCNhW", "mw": "282.13", "formula": "C<SUB>12</SUB>H<SUB>23</SUB>BF<SUB>4</SUB>N<SUB>2</SUB>", "name": "1-methyl-3-octylimidazolium tetrafluoroborate"}], "title": "Refraction, surface tension, and speed of sound: Refractive index (Na D-line)", "dhead": [["Temperature, K", null], ["Pressure, kPa", null], ["Refractive index (Na D-line)", "Liquid"]], "solvent": null, "data": [[["298.15"], ["101.325"], ["1.4319", "0.0014"]]], "footer": "", "expmeth": "Standard Abbe refractometry"}