{"constr": [], "ref": {"title": "Influence of the alkyl side chain length on the thermophysical properties of chiral ionic liquids with a (1R,2S,5R)-(-)-menthol substituent and data analysis by means of mathematical gnostics", "full": "Andresova, Adela; Bendova, Magdalena; Schwarz, Jaroslav; Wagner, Zdenek; Feder-Kubis, Joanna (2017) J. Mol. Liq. 242, 336-348."}, "phases": ["Liquid"], "components": [{"sample": [["Source:", "synthesized by the authors"], ["Purification:", "NMR (proton);Karl Fischer titration"], ["Purity:", "99.978 mass %;0.021 water mass %(dried by vacuum heating;solvent extraction)"]], "mw": "573.61", "idout": "ACGQRn", "name": "3-butyl-1-[(1R,2S,5R)-(-)-menthoxymethyl]imidazolium bis(trifluoromethylsulfonyl)imide", "formula": "C<SUB>20</SUB>H<SUB>33</SUB>F<SUB>6</SUB>N<SUB>3</SUB>O<SUB>5</SUB>S<SUB>2</SUB>"}], "title": "Refraction, surface tension, and speed of sound: Refractive index (Na D-line)", "dhead": [["Temperature, K", null], ["Pressure, kPa", null], ["Refractive index (Na D-line)", "Liquid"]], "data": [[["298.15"], ["101.325"], ["1.4487", "0.0007"]]], "solvent": null, "footer": "", "expmeth": "Standard Abbe refractometry"}