{"expmeth": "Standard Abbe refractometry", "data": [[["0"], ["0.214"], ["101"], ["298.15"], ["1.3479", "0.00032"]], [["0.067"], ["0.1631"], ["101"], ["298.15"], ["1.35547", "0.00032"]], [["0.1403"], ["0.1242"], ["101"], ["298.15"], ["1.36758", "0.00032"]], [["0.2165"], ["0.0989"], ["101"], ["298.15"], ["1.37891", "0.00032"]], [["0.2959"], ["0.0764"], ["101"], ["298.15"], ["1.39197", "0.00033"]], [["0.3786"], ["0.0546"], ["101"], ["298.15"], ["1.40643", "0.00033"]], [["0.4625"], ["0.0375"], ["101"], ["298.15"], ["1.42096", "0.00033"]], [["0.5474"], ["0.0236"], ["101"], ["298.15"], ["1.43635", "0.00034"]], [["0.6288"], ["0.0187"], ["101"], ["298.15"], ["1.45236", "0.00034"]], [["0.7103"], ["0.0145"], ["101"], ["298.15"], ["1.47393", "0.00035"]], [["0.7918"], ["0.0113"], ["101"], ["298.15"], ["1.49163", "0.00036"]]], "solvent": null, "footer": "", "dhead": [["Weight fraction of 1-butyl-3-methylimidazolium bromide", "Liquid"], ["Weight fraction of cesium nitrate", "Liquid"], ["Pressure, kPa", null], ["Temperature, K", null], ["Refractive index (Na D-line)", "Liquid"]], "components": [{"mw": "18.02", "idout": "AADYJk", "formula": "H<SUB>2</SUB>O", "name": "water", "sample": [["Purification:", "estimated by the compiler"], ["Purity:", "99.9 mass %(unspecified)"]]}, {"formula": "CsNO<SUB>3</SUB>", "name": "cesium nitrate", "mw": "194.91", "idout": "AAlZDt", "sample": [["Source:", "commercial source"], ["Purification:", "stated by supplier"], ["Purity:", "99.5 mass %"]]}, {"name": "1-butyl-3-methylimidazolium bromide", "formula": "C<SUB>8</SUB>H<SUB>15</SUB>BrN<SUB>2</SUB>", "mw": "219.13", "idout": "AAqHiH", "sample": [["Source:", "commercial source"], ["Purification:", "stated by supplier"], ["Purity:", "99 mol %"], ["Purity analysis:", "dried by vacuum heating"]]}], "title": "Refraction, surface tension, and speed of sound: Refractive index (Na D-line)", "phases": ["Liquid"], "ref": {"full": "Li, X.; Li, S.; Zhai, Q.; Jiang, Y.; Hu, M. (2016) J. Mol. Liq. 215, 237-243.", "title": "Phase behavior of [Cnmim]Cl/Br (n=2, 4, 6, 8) +MNO3(M=Na, K, Rb, Cs) + H2O systems at 298.15 K"}, "constr": []}