{"components": [{"sample": [["Source:", "commercial source"], ["Initial purification:", "stated by supplier"], ["Initial purity:", "95 % (basis not specified)"], ["Final purification:", "estimated by the compiler;Karl Fischer titration"], ["Final purity:", "99 mass %;0.21 water mass %(dried by vacuum heating)"]], "name": "1-butyl-3-methylimidazolium acetate", "formula": "C<SUB>10</SUB>H<SUB>18</SUB>N<SUB>2</SUB>O<SUB>2</SUB>", "mw": "198.27", "idout": "AAmGQS"}], "title": "Refraction, surface tension, and speed of sound: Refractive index (Na D-line)", "dhead": [["Temperature, K", null], ["Pressure, kPa", null], ["Refractive index (Na D-line)", "Liquid"]], "solvent": null, "data": [[["298.15"], ["101.325"], ["1.49372", "0.00037"]]], "footer": "", "expmeth": "Standard Abbe refractometry", "constr": [], "ref": {"full": "Lago, S.; Rodriguez, H.; Arce, A.; Soto, A. (2014) Fluid Phase Equilib. 361, 37-44.", "title": "Improved concentration of citrus essential oil by solvent extraction with acetate ionic liquids"}, "phases": ["Liquid"]}