{"constr": [], "ref": {"title": "Extractions of Alkaloids Codeine and Caffeine with [Bmim][BF4]/Carbohydrate Aqueous Biphasic Systems as a Novel Class of Liquid-Liquid Extraction Systems", "full": "Jamehbozorg, Bahman; Sadeghi, Rahmat (2019) J. Chem. Eng. Data 64(3), 916-925."}, "phases": ["Liquid"], "dhead": [["Weight fraction of 1-butyl-3-methylimidazolium tetrafluoroborate", "Liquid"], ["Temperature, K", null], ["Pressure, kPa", null], ["Solvent: Weight fraction of D-sucrose", "Liquid"], ["Refractive index (Na D-line)", "Liquid"]], "components": [{"name": "1-butyl-3-methylimidazolium tetrafluoroborate", "formula": "C<SUB>8</SUB>H<SUB>15</SUB>BF<SUB>4</SUB>N<SUB>2</SUB>", "mw": "226.03", "idout": "AArYBF", "sample": [["Source:", "synthesized by the authors"], ["Purification:", "NMR (proton)"], ["Purity:", "98 mass %"]]}, {"idout": "ABNqYl", "mw": "342.30", "formula": "C<SUB>12</SUB>H<SUB>22</SUB>O<SUB>11</SUB>", "name": "D-sucrose", "sample": [["Source:", "commercial source"], ["Purification:", "stated by supplier"], ["Purity:", "98 mass %"]]}, {"sample": [["Source:", "commercial source"], ["Purification:", "estimated by the compiler"], ["Purity:", "99.9 mass %"]], "formula": "H<SUB>2</SUB>O", "name": "water", "mw": "18.02", "idout": "AADYJk"}], "title": "Refraction, surface tension, and speed of sound: Refractive index (Na D-line)", "expmeth": "Standard Abbe refractometry", "data": [[["0"], ["298.15"], ["84.5"], ["0.02"], ["1.33518", "0.00061"]], [["0.0014"], ["298.15"], ["84.5"], ["0.02"], ["1.33529", "0.00062"]], [["0.003"], ["298.15"], ["84.5"], ["0.02"], ["1.33541", "0.00065"]], [["0.0041"], ["298.15"], ["84.5"], ["0.02"], ["1.3355", "0.00067"]], [["0.0145"], ["298.15"], ["84.5"], ["0.02"], ["1.33622", "0.00083"]], [["0.0237"], ["298.15"], ["84.5"], ["0.02"], ["1.33687", "0.00083"]], [["0.038"], ["298.15"], ["84.5"], ["0.02"], ["1.33787", "0.00083"]], [["0.0598"], ["298.15"], ["84.5"], ["0.02"], ["1.33941", "0.00083"]], [["0.0783"], ["298.15"], ["84.5"], ["0.02"], ["1.34071", "0.00083"]], [["0.1004"], ["298.15"], ["84.5"], ["0.02"], ["1.34228", "0.00083"]], [["0.132"], ["298.15"], ["84.5"], ["0.02"], ["1.34451", "0.00083"]]], "solvent": "D-sucrose + water", "footer": ""}