{"ref": {"full": "Malham, I. B.; Turmine, M. (2008) J. Chem. Thermodyn. 40(4), 718-723.", "title": "Viscosities and refractive indices of binary mixtures of 1-butyl-3-methylimidazolium tetrafluoroborate and 1-butyl-2,3-dimethylimidazolium tetrafluoroborate with water at 298 K"}, "constr": [], "phases": ["Liquid"], "components": [{"name": "water", "formula": "H<SUB>2</SUB>O", "mw": "18.02", "idout": "AADYJk", "sample": [["Source:", "synthesized by the authors"], ["Purification:", "estimated by the compiler"], ["Purity:", "99.5 % (basis not specified)"]]}, {"formula": "C<SUB>9</SUB>H<SUB>17</SUB>BF<SUB>4</SUB>N<SUB>2</SUB>", "name": "1-butyl-2,3-dimethylimidazolium tetrafluoroborate", "idout": "AAuItX", "mw": "240.05", "sample": [["Source:", "synthesized by the authors"], ["Purification:", "Karl Fischer titration"], ["Purity:", "0.053 water mass %"]]}], "title": "Refraction, surface tension, and speed of sound: Refractive index (Na D-line)", "dhead": [["Mole fraction of 1-butyl-2,3-dimethylimidazolium tetrafluoroborate", "Liquid"], ["Temperature, K", null], ["Pressure, kPa", null], ["Refractive index (Na D-line)", "Liquid"]], "data": [[["0"], ["298.15"], ["101"], ["1.333", "0.002"]], [["0.0397"], ["298.15"], ["101"], ["1.362", "0.002"]], [["0.1068"], ["298.15"], ["101"], ["1.387", "0.002"]], [["0.1997"], ["298.15"], ["101"], ["1.404", "0.002"]], [["0.2577"], ["298.15"], ["101"], ["1.411", "0.002"]], [["0.3222"], ["298.15"], ["101"], ["1.417", "0.002"]], [["0.4983"], ["298.15"], ["101"], ["1.423", "0.002"]], [["0.7058"], ["298.15"], ["101"], ["1.429", "0.002"]], [["0.7325"], ["298.15"], ["101"], ["1.43", "0.002"]], [["0.8659"], ["298.15"], ["101"], ["1.432", "0.002"]], [["1"], ["298.15"], ["101"], ["1.433", "0.002"]]], "solvent": null, "footer": "", "expmeth": "Standard Abbe refractometry"}