{"ref": {"full": "Costa, R.; Pereira, C. M.; Silva, A. F.; Brevet, P.-F.; Benichou, E. (2020) J. Phys. Chem. B 124(19), 3954-3961.", "title": "Ordering and Nonideality of Air-Ionic Liquid Interfaces in Surface Second Harmonic Generation"}, "constr": [], "phases": ["Liquid"], "title": "Refraction, surface tension, and speed of sound: Refractive index", "components": [{"sample": [["Source:", "commercial source"], ["Purification:", "stated by supplier"], ["Purity:", "99 % (basis not specified)"]], "name": "1-dodecyl-3-methyl-1H-imidazolium bis(trifluoromethylsulfonyl)amide", "formula": "C<SUB>18</SUB>H<SUB>31</SUB>F<SUB>6</SUB>N<SUB>3</SUB>O<SUB>4</SUB>S<SUB>2</SUB>", "idout": "AByLzK", "mw": "531.57"}], "dhead": [["Temperature, K", null], ["Pressure, kPa", null], ["Wavelength, A", "Liquid"], ["Refractive index", "Liquid"]], "footer": "", "solvent": null, "data": [[["293"], ["101300"], ["400"], ["1.448", "0.001"]], [["293"], ["101300"], ["450"], ["1.443", "0.001"]], [["293"], ["101300"], ["490"], ["1.439", "0.001"]], [["293"], ["101300"], ["532"], ["1.437", "0.001"]], [["293"], ["101300"], ["591"], ["1.434", "0.001"]], [["293"], ["101300"], ["661"], ["1.432", "0.001"]], [["293"], ["101300"], ["700"], ["1.431", "0.001"]]], "expmeth": "Standard Abbe refractometry"}