{"components": [{"sample": [["Source:", "synthesized by the authors"], ["Purification:", "NMR (proton);Karl Fischer titration;NMR (proton)"], ["Purity:", "96.9 mass %;0.000184 water mass %;0.000083 halide impurity mass %"]], "idout": "ACbbYQ", "mw": "683.99", "name": "1-decyl-3-propanenitrile imidazolium dioctysulfosuccinate", "formula": "C<SUB>36</SUB>H<SUB>65</SUB>N<SUB>3</SUB>O<SUB>7</SUB>S"}], "title": "Refraction, surface tension, and speed of sound: Refractive index (Na D-line)", "dhead": [["Temperature, K", null], ["Pressure, kPa", null], ["Refractive index (Na D-line)", "Liquid"]], "solvent": null, "data": [[["298.15"], ["101.325"], ["1.4761", "0.00069"]], [["303.15"], ["101.325"], ["1.47476", "0.00069"]], [["308.15"], ["101.325"], ["1.47345", "0.00069"]], [["313.15"], ["101.325"], ["1.47203", "0.00069"]], [["318.15"], ["101.325"], ["1.47055", "0.00069"]], [["323.15"], ["101.325"], ["1.46909", "0.00069"]], [["328.15"], ["101.325"], ["1.46761", "0.00069"]], [["333.15"], ["101.325"], ["1.46601", "0.00069"]]], "footer": "", "expmeth": "Standard Abbe refractometry", "constr": [], "ref": {"title": "Physical Properties of Ionic Liquids Consisting of 1-Butyl-3-propanenitrile- and 1-Decyl-3-propanenitrile Imidazolium-Based Cations: Temperature Dependence and Influence of the Anion", "full": "Ziyada, A. K.; Wilfred, C. D. (2014) J. Chem. Eng. Data 59(4), 1232-1239."}, "phases": ["Liquid"]}