{"ref": {"title": "Liquid-liquid equilibria, excess molar volume and deviations of the refractive indices at 298.15 K for mixtures of solvents used in themolybdenum extraction process", "full": "Choi, Y.-Y.; Hwang, I.-C.; Shin, S.-H.; Park, S.-J. (2013) Fluid Phase Equilib. 354, 59-65."}, "constr": [], "phases": ["Liquid"], "title": "Refraction, surface tension, and speed of sound: Refractive index (Na D-line)", "components": [{"sample": [["Source:", "commercial source"], ["Purification:", "Karl Fischer titration;estimated by the compiler"], ["Purity:", "0.05 water mass %;98 mass %(molecular sieve treatment)"]], "formula": "C<SUB>12</SUB>H<SUB>23</SUB>BF<SUB>4</SUB>N<SUB>2</SUB>", "name": "1-methyl-3-octylimidazolium tetrafluoroborate", "mw": "282.13", "idout": "ABCNhW"}], "dhead": [["Temperature, K", null], ["Pressure, kPa", null], ["Refractive index (Na D-line)", "Liquid"]], "footer": "", "data": [[["298.15"], ["101.325"], ["1.43306", "0.0012"]]], "solvent": null, "expmeth": "Standard Abbe refractometry"}