{"constr": [], "ref": {"title": "Evaluation of the polysubstituted pyridinium ionic liquid [hmmpy][Ntf2] as a suitable solvent for desulfurization: Phase equilibria", "full": "Arce, A.; Francisco, M.; Soto, A. (2010) J. Chem. Thermodyn. 42(6), 712-718."}, "phases": ["Liquid"], "title": "Refraction, surface tension, and speed of sound: Refractive index (Na D-line)", "components": [{"sample": [["Source:", "commercial source"], ["Purification:", "estimated by the compiler;Karl Fischer titration"], ["Purity:", "97 mass %;0.00598 water mass %"]], "name": "1-hexyl-3,5-dimethylpyridinium bis(trifluoromethylsulfonyl)imide", "formula": "C<SUB>15</SUB>H<SUB>22</SUB>F<SUB>6</SUB>N<SUB>2</SUB>O<SUB>4</SUB>S<SUB>2</SUB>", "idout": "ABmsXD", "mw": "472.46"}], "dhead": [["Temperature, K", null], ["Pressure, kPa", null], ["Refractive index (Na D-line)", "Liquid"]], "footer": "", "data": [[["298.15"], ["101.325"], ["1.44978", "0.00031"]]], "solvent": null, "expmeth": "Standard Abbe refractometry"}