{"phases": ["Liquid"], "ref": {"full": "Jin, H.; O Hare, B.; Dong, J.; Arzhantsev, S.; Baker, G. A.; Wishart, J. F.; Benesi, A. J.; Maroncelli, M. (2008) J. Phys. Chem. B 112, 81-92.", "title": "Physical Properties of Ionic Liquids Consisting of the 1-Butyl-3-Methylimidazolium Cation with Various Anions and the Bis(trifluoromethylsulfonyl)imide Anion with Various Cations"}, "constr": [], "expmeth": "Standard Abbe refractometry", "solvent": null, "data": [[["298.1"], ["101.325"], ["1.42", "0.002"]]], "footer": "", "dhead": [["Temperature, K", null], ["Pressure, kPa", null], ["Refractive index (Na D-line)", "Liquid"]], "components": [{"mw": "226.03", "idout": "AArYBF", "formula": "C<SUB>8</SUB>H<SUB>15</SUB>BF<SUB>4</SUB>N<SUB>2</SUB>", "name": "1-butyl-3-methylimidazolium tetrafluoroborate", "sample": [["Source:", "commercial source"], ["Initial purification:", "stated by supplier"], ["Initial purity:", "97 mass %"], ["Final purification:", "chemical analysis;Karl Fischer titration"], ["Final purity:", "0.01 halide impurity mass %;0.0061 water mass %(dried by vacuum heating)"]]}], "title": "Refraction, surface tension, and speed of sound: Refractive index (Na D-line)"}