{"components": [{"mw": "296.16", "idout": "ABExzf", "formula": "C<SUB>13</SUB>H<SUB>25</SUB>BF<SUB>4</SUB>N<SUB>2</SUB>", "name": "1-ethyl-3-octylimidazolium tetrafluoroborate", "sample": [["Source:", "synthesized by the authors"], ["Purification:", "estimation"], ["Purity:", "99 mass %(dried by vacuum heating;solvent extraction)"]]}], "title": "Refraction, surface tension, and speed of sound: Refractive index (Na D-line)", "dhead": [["Temperature, K", null], ["Pressure, kPa", null], ["Refractive index (Na D-line)", "Liquid"]], "data": [[["298.1"], ["101.325"], ["1.4375", "0.0008"]]], "solvent": null, "footer": "", "expmeth": "Standard Abbe refractometry", "constr": [], "ref": {"full": "Wang, R.; Qi, X.; Liu, S.; He, Y.; Deng, Y. (2016) J. Mol. Liq. 221, 339-345.", "title": "A comparison study on the properties of 1,3-dialkylimidazolium tetrafluoroborate salts prepared by halogen-free and traditional method"}, "phases": ["Liquid"]}