{"dhead": [["Temperature, K", null], ["Pressure, kPa", null], ["Refractive index (Na D-line)", "Liquid"]], "components": [{"mw": "249.23", "idout": "AAvwNA", "formula": "C<SUB>11</SUB>H<SUB>14</SUB>F<SUB>3</SUB>NO<SUB>2</SUB>", "name": "1-butylpyridinium trifluoroacetate", "sample": [["Source:", "synthesized by the authors"], ["Purification:", "NMR (proton);Karl Fischer titration;ion-selective electrode"], ["Purity:", "99 mass %;0.05 water mass %;0.05 halide impurity mass %(dried by vacuum heating)"]]}], "title": "Refraction, surface tension, and speed of sound: Refractive index (Na D-line)", "expmeth": "Standard Abbe refractometry", "data": [[["293.15"], ["100"], ["1.5101", "0.0031"]], [["298.15"], ["100"], ["1.5087", "0.0031"]], [["303.15"], ["100"], ["1.5072", "0.0031"]], [["308.15"], ["100"], ["1.5056", "0.0031"]], [["313.15"], ["100"], ["1.5041", "0.0031"]], [["318.15"], ["100"], ["1.5032", "0.0031"]], [["323.15"], ["100"], ["1.5017", "0.0031"]], [["328.15"], ["100"], ["1.5003", "0.0031"]], [["333.15"], ["100"], ["1.4993", "0.0031"]], [["338.15"], ["100"], ["1.4981", "0.0031"]], [["343.15"], ["100"], ["1.4965", "0.0031"]]], "solvent": null, "footer": "", "ref": {"full": "Song, Zongren; Yan, Qiang; Xia, Meichen; Qi, Xiaochen; Zhang, Zhiheng; Wei, Jie; Fang, Dawei; Ma, Xiaoxue (2021) J. Chem. Thermodyn. 155, 106366.", "title": "Physicochemical properties of N-alkylpyridine trifluoroacetate ionic liquids [CnPy][TFA] (n = 2-6)"}, "constr": [], "phases": ["Liquid"]}