{"title": "Refraction, surface tension, and speed of sound: Refractive index (Na D-line)", "components": [{"sample": [["Source:", "synthesized by the authors"], ["Purification:", "not known"], ["Purity:", "99.3 mass %(dried by vacuum heating)"]], "idout": "AArYBF", "mw": "226.03", "formula": "C<SUB>8</SUB>H<SUB>15</SUB>BF<SUB>4</SUB>N<SUB>2</SUB>", "name": "1-butyl-3-methylimidazolium tetrafluoroborate"}, {"formula": "C<SUB>6</SUB>H<SUB>7</SUB>N", "name": "aniline", "mw": "93.13", "idout": "AARvIf", "sample": [["Source:", "commercial source"], ["Initial purification:", "stated by supplier"], ["Initial purity:", "99.5 mass %"], ["Final purification:", "gas chromatography"], ["Final purity:", "99.8 mass %(fractional distillation)"]]}], "dhead": [["Temperature, K", null], ["Mole fraction of 1-butyl-3-methylimidazolium tetrafluoroborate", "Liquid"], ["Pressure, kPa", null], ["Refractive index (Na D-line)", "Liquid"]], "footer": "", "data": [[["293.15"], ["0"], ["101.3"], ["1.58547", "0.001"]], [["293.15"], ["0.0925"], ["101.3"], ["1.55895", "0.001"]], [["293.15"], ["0.2022"], ["101.3"], ["1.53351", "0.001"]], [["293.15"], ["0.2995"], ["101.3"], ["1.51413", "0.001"]], [["293.15"], ["0.4002"], ["101.3"], ["1.49757", "0.001"]], [["293.15"], ["0.4982"], ["101.3"], ["1.48453", "0.001"]], [["293.15"], ["0.5953"], ["101.3"], ["1.47245", "0.001"]], [["293.15"], ["0.6935"], ["101.3"], ["1.46056", "0.001"]], [["293.15"], ["0.7904"], ["101.3"], ["1.44963", "0.001"]], [["293.15"], ["0.9191"], ["101.3"], ["1.43466", "0.001"]], [["298.15"], ["0"], ["101.3"], ["1.5824", "0.001"]], [["298.15"], ["0.0925"], ["101.3"], ["1.55729", "0.001"]], [["298.15"], ["0.2022"], ["101.3"], ["1.53162", "0.001"]], [["298.15"], ["0.2995"], ["101.3"], ["1.51275", "0.001"]], [["298.15"], ["0.4002"], ["101.3"], ["1.49641", "0.001"]], [["298.15"], ["0.4982"], ["101.3"], ["1.48326", "0.001"]], [["298.15"], ["0.5953"], ["101.3"], ["1.47121", "0.001"]], [["298.15"], ["0.6935"], ["101.3"], ["1.45951", "0.001"]], [["298.15"], ["0.7904"], ["101.3"], ["1.44905", "0.001"]], [["298.15"], ["0.9191"], ["101.3"], ["1.43328", "0.001"]], [["303.15"], ["0"], ["101.3"], ["1.5796", "0.001"]], [["303.15"], ["0.0925"], ["101.3"], ["1.55559", "0.001"]], [["303.15"], ["0.2022"], ["101.3"], ["1.53002", "0.001"]], [["303.15"], ["0.2995"], ["101.3"], ["1.51155", "0.001"]], [["303.15"], ["0.4002"], ["101.3"], ["1.49545", "0.001"]], [["303.15"], ["0.4982"], ["101.3"], ["1.48225", "0.001"]], [["303.15"], ["0.5953"], ["101.3"], ["1.47025", "0.001"]], [["303.15"], ["0.6935"], ["101.3"], ["1.45891", "0.001"]], [["303.15"], ["0.7904"], ["101.3"], ["1.44835", "0.001"]], [["303.15"], ["0.9191"], ["101.3"], ["1.43208", "0.001"]], [["308.15"], ["0"], ["101.3"], ["1.57689", "0.001"]], [["308.15"], ["0.0925"], ["101.3"], ["1.55359", "0.001"]], [["308.15"], ["0.2022"], ["101.3"], ["1.52822", "0.001"]], [["308.15"], ["0.2995"], ["101.3"], ["1.51005", "0.001"]], [["308.15"], ["0.4002"], ["101.3"], ["1.49385", "0.001"]], [["308.15"], ["0.4982"], ["101.3"], ["1.48085", "0.001"]], [["308.15"], ["0.5953"], ["101.3"], ["1.46905", "0.001"]], [["308.15"], ["0.6935"], ["101.3"], ["1.45811", "0.001"]], [["308.15"], ["0.7904"], ["101.3"], ["1.44725", "0.001"]], [["308.15"], ["0.9191"], ["101.3"], ["1.43088", "0.001"]], [["313.15"], ["0"], ["101.3"], ["1.57423", "0.001"]], [["313.15"], ["0.0925"], ["101.3"], ["1.55169", "0.001"]], [["313.15"], ["0.2022"], ["101.3"], ["1.52682", "0.001"]], [["313.15"], ["0.2995"], ["101.3"], ["1.50885", "0.001"]], [["313.15"], ["0.4002"], ["101.3"], ["1.49275", "0.001"]], [["313.15"], ["0.4982"], ["101.3"], ["1.47955", "0.001"]], [["313.15"], ["0.5953"], ["101.3"], ["1.46795", "0.001"]], [["313.15"], ["0.6935"], ["101.3"], ["1.45721", "0.001"]], [["313.15"], ["0.7904"], ["101.3"], ["1.44635", "0.001"]], [["313.15"], ["0.9191"], ["101.3"], ["1.42998", "0.001"]], [["318.15"], ["0"], ["101.3"], ["1.57162", "0.001"]], [["318.15"], ["0.0925"], ["101.3"], ["1.54979", "0.001"]], [["318.15"], ["0.2022"], ["101.3"], ["1.52542", "0.001"]], [["318.15"], ["0.2995"], ["101.3"], ["1.50755", "0.001"]], [["318.15"], ["0.4002"], ["101.3"], ["1.49165", "0.001"]], [["318.15"], ["0.4982"], ["101.3"], ["1.47855", "0.001"]], [["318.15"], ["0.5953"], ["101.3"], ["1.46705", "0.001"]], [["318.15"], ["0.6935"], ["101.3"], ["1.45651", "0.001"]], [["318.15"], ["0.7904"], ["101.3"], ["1.44555", "0.001"]], [["318.15"], ["0.9191"], ["101.3"], ["1.42908", "0.001"]], [["323.15"], ["0"], ["101.3"], ["1.56906", "0.001"]], [["323.15"], ["0.0925"], ["101.3"], ["1.54769", "0.001"]], [["323.15"], ["0.2022"], ["101.3"], ["1.52392", "0.001"]], [["323.15"], ["0.2995"], ["101.3"], ["1.50655", "0.001"]], [["323.15"], ["0.4002"], ["101.3"], ["1.49055", "0.001"]], [["323.15"], ["0.4982"], ["101.3"], ["1.47755", "0.001"]], [["323.15"], ["0.5953"], ["101.3"], ["1.46605", "0.001"]], [["323.15"], ["0.6935"], ["101.3"], ["1.45521", "0.001"]], [["323.15"], ["0.7904"], ["101.3"], ["1.44455", "0.001"]], [["323.15"], ["0.9191"], ["101.3"], ["1.42768", "0.001"]]], "solvent": null, "expmeth": "Standard Abbe refractometry", "constr": [], "ref": {"title": "Investigation of Temperature, Composition, and Alkyl Chain-Dependent Molecular Interactions between Imidazolium-Based Ionic Liquids and Aniline: A Study of Experimental and Theoretical Thermophysical Properties", "full": "Master, Z.; Malek, N. I. (2021) J. Chem. Eng. Data 66(1), 154-169."}, "phases": ["Liquid"]}