{"phases": ["Liquid"], "ref": {"title": "The molar surface Gibbs free energy and estimate of polarity for a new ether-functionalized ionic liquid [C22O1IM][DCA]", "full": "Pan, Y.; Zheng, L.; Xing, N.; Ji, H.; Guan, W. (2017) J. Chem. Thermodyn. 112, 213-219."}, "constr": [], "expmeth": "Standard Abbe refractometry", "data": [[["298.15"], ["101.325"], ["1.5053", "0.0031"]], [["303.15"], ["101.325"], ["1.504", "0.0031"]], [["308.15"], ["101.325"], ["1.5028", "0.0031"]], [["313.15"], ["101.325"], ["1.5017", "0.0031"]], [["318.15"], ["101.325"], ["1.5", "0.0031"]], [["323.15"], ["101.325"], ["1.4989", "0.0031"]], [["328.15"], ["101.325"], ["1.4977", "0.0031"]], [["333.15"], ["101.325"], ["1.496", "0.0031"]], [["338.15"], ["101.325"], ["1.4946", "0.0031"]]], "solvent": null, "footer": "", "dhead": [["Temperature, K", null], ["Pressure, kPa", null], ["Refractive index (Na D-line)", "Liquid"]], "components": [{"mw": "221.26", "idout": "AAqcec", "formula": "C<SUB>10</SUB>H<SUB>15</SUB>N<SUB>5</SUB>O", "name": "1-ethyl-3-(2-methoxyethyl)imidazolium dicyanamide", "sample": [["Source:", "synthesized by the authors"], ["Purification:", "NMR (proton);ion-selective electrode"], ["Purity:", "99 mass %;0.0210 halide impurity mass %(dried by vacuum heating;solvent extraction)"]]}], "title": "Refraction, surface tension, and speed of sound: Refractive index (Na D-line)"}