{"title": "Refraction, surface tension, and speed of sound: Refractive index (Na D-line)", "components": [{"idout": "AAtepM", "mw": "237.05", "name": "1-butyl-2-methylpyridinium tetrafluoroborate", "formula": "C<SUB>10</SUB>H<SUB>16</SUB>BF<SUB>4</SUB>N", "sample": [["Source:", "commercial source"], ["Purification:", "stated by supplier"], ["Purity:", "99 mol %"], ["Purity analysis:", "dried by vacuum heating"]]}], "dhead": [["Temperature, K", null], ["Pressure, kPa", null], ["Refractive index (Na D-line)", "Liquid"]], "footer": "", "data": [[["288.15"], ["101.325"], ["1.46042", "0.00037"]], [["290.65"], ["101.325"], ["1.45973", "0.00037"]], [["293.15"], ["101.325"], ["1.45905", "0.00037"]], [["295.65"], ["101.325"], ["1.45839", "0.00037"]], [["298.15"], ["101.325"], ["1.45772", "0.00037"]], [["300.65"], ["101.325"], ["1.45703", "0.00037"]], [["303.15"], ["101.325"], ["1.45638", "0.00037"]], [["305.65"], ["101.325"], ["1.4557", "0.00037"]], [["308.15"], ["101.325"], ["1.45502", "0.00037"]], [["310.65"], ["101.325"], ["1.45437", "0.00037"]], [["313.15"], ["101.325"], ["1.45371", "0.00037"]], [["315.65"], ["101.325"], ["1.45304", "0.00037"]], [["318.15"], ["101.325"], ["1.45237", "0.00037"]], [["320.65"], ["101.325"], ["1.45172", "0.00037"]], [["323.15"], ["101.325"], ["1.45108", "0.00037"]], [["325.65"], ["101.325"], ["1.45042", "0.00037"]], [["328.15"], ["101.325"], ["1.44975", "0.00037"]], [["330.65"], ["101.325"], ["1.44911", "0.00037"]], [["333.15"], ["101.325"], ["1.44845", "0.00037"]], [["335.65"], ["101.325"], ["1.44782", "0.00037"]], [["338.15"], ["101.325"], ["1.44725", "0.00037"]]], "solvent": null, "expmeth": "Standard Abbe refractometry", "ref": {"full": "Bandres, I.; Pera, G.; Martin, S.; Castro, M.; Lafuente, C. (2009) J. Phys. Chem. B 113, 11936-11942.", "title": "Thermophysical Study of 1-Butyl-2-Methylpyridinium Tetrafluoroborate Ionic Liquid"}, "constr": [], "phases": ["Liquid"]}