{"data": [[["304.92"], ["101.325"], ["1.41354", "0.0006"]], [["306.89"], ["101.325"], ["1.41253", "0.0006"]], [["308.37"], ["101.325"], ["1.41148", "0.0006"]], [["309.67"], ["101.325"], ["1.41066", "0.0006"]], [["311.01"], ["101.325"], ["1.40962", "0.0006"]], [["311.91"], ["101.325"], ["1.40895", "0.0006"]], [["312.94"], ["101.325"], ["1.40784", "0.0006"]], [["313.41"], ["101.325"], ["1.40734", "0.0006"]], [["314.05"], ["101.325"], ["1.40659", "0.0006"]], [["314.38"], ["101.325"], ["1.40601", "0.0006"]], [["314.62"], ["101.325"], ["1.40565", "0.0006"]], [["314.79"], ["101.325"], ["1.4053", "0.0006"]], [["314.9"], ["101.325"], ["1.40496", "0.0006"]], [["314.96"], ["101.325"], ["1.40462", "0.0006"]], [["315.02"], ["101.325"], ["1.4044", "0.0006"]], [["315.07"], ["101.325"], ["1.40418", "0.00061"]], [["315.08"], ["101.325"], ["1.40396", "0.0006"]], [["315.09"], ["101.325"], ["1.40363", "0.00066"]]], "solvent": null, "footer": "", "expmeth": "minimum beam deflection method", "components": [{"formula": "C<SUB>5</SUB>H<SUB>12</SUB>O", "name": "pentan-1-ol", "idout": "AAQxal", "mw": "88.15", "sample": [["Source:", "commercial source"], ["Purification:", "stated by supplier"], ["Purity:", "99 % (basis not specified)"], ["Purity analysis:", "none used"]]}, {"idout": "AAwscj", "mw": "254.08", "name": "1-hexyl-3-methylimidazolium tetrafluoroborate", "formula": "C<SUB>10</SUB>H<SUB>19</SUB>BF<SUB>4</SUB>N<SUB>2</SUB>", "sample": [["Source:", "commercial source"], ["Purity analysis:", "dried in a desiccator;dried by vacuum heating"]]}], "title": "Refraction, surface tension, and speed of sound: Refractive index (Na D-line)", "dhead": [["Temperature, K", null], ["Pressure, kPa", null], ["Refractive index (Na D-line)", "Liquid mixture 2"]], "phases": ["Liquid mixture 2", "Liquid mixture 1"], "constr": [], "ref": {"full": "Wagner, M.; Stanga, O.; Schroer, W. (2004) Phys. Chem. Chem. Phys. 6(18), 4421-4431.", "title": "The liquid liquid coexistence of binary mixtures of the room temperature ionic liquid 1-methyl-3-hexylimidazolium tetrafluoroborate with alcohols"}}