{"title": "Refraction, surface tension, and speed of sound: Refractive index (Na D-line)", "components": [{"sample": [["Source:", "commercial source"], ["Purification:", "stated by supplier"], ["Purity:", "98 mol %"]], "name": "trifluoromethylsulfonic acid", "formula": "CHF<SUB>3</SUB>O<SUB>3</SUB>S", "idout": "AAcsqS", "mw": "150.07"}, {"formula": "C<SUB>12</SUB>H<SUB>28</SUB>BF<SUB>4</SUB>N", "name": "N,N,N-triethyl-N-hexylammonium tetrafluoroborate", "idout": "ABAbgR", "mw": "273.17", "sample": [["Source:", "synthesized by others"], ["Purification:", "Karl Fischer titration;ion-selective electrode;NMR (proton)"], ["Purity:", "0.0125 water mass %;0.0047 halide impurity mass %;99 % (basis not specified)(dried by vacuum heating)"]]}], "dhead": [["Weight fraction of N,N,N-triethyl-N-hexylammonium tetrafluoroborate", "Liquid"], ["Pressure, kPa", null], ["Temperature, K", null], ["Refractive index (Na D-line)", "Liquid"]], "footer": "", "data": [[["0"], ["101"], ["293.15"], ["1.3292", "0.005"]], [["0.1"], ["101"], ["293.15"], ["1.3475", "0.0052"]], [["0.2"], ["101"], ["293.15"], ["1.3572", "0.0051"]], [["0.3"], ["101"], ["293.15"], ["1.3654", "0.0051"]], [["0.4"], ["101"], ["293.15"], ["1.3728", "0.0051"]], [["0.5"], ["101"], ["293.15"], ["1.3782", "0.0051"]]], "solvent": null, "expmeth": "Standard Abbe refractometry", "ref": {"title": "Physicochemical Characterization of MFm -Based Ammonium Ionic Liquids", "full": "Li, H.; Zhao, G.; Liu, F.; Zhang, S. (2013) J. Chem. Eng. Data 58(6), 1505-1515."}, "constr": [], "phases": ["Liquid"]}