{"dhead": [["Temperature, K", null], ["Mole fraction of 1-butyl-3-methylimidazolium tetrafluoroborate", "Liquid"], ["Pressure, kPa", null], ["Refractive index (Na D-line)", "Liquid"]], "components": [{"mw": "18.02", "idout": "AADYJk", "name": "water", "formula": "H<SUB>2</SUB>O", "sample": [["Source:", "commercial source"], ["Purification:", "estimated by the compiler"], ["Purity:", "99.9 mass %"], ["Purity analysis:", "fractional distillation"]]}, {"idout": "AArYBF", "mw": "226.03", "name": "1-butyl-3-methylimidazolium tetrafluoroborate", "formula": "C<SUB>8</SUB>H<SUB>15</SUB>BF<SUB>4</SUB>N<SUB>2</SUB>", "sample": [["Source:", "commercial source"], ["Purification:", "stated by supplier"], ["Purity:", "99 mass %"], ["Purity analysis:", "dried by vacuum heating"]]}], "title": "Refraction, surface tension, and speed of sound: Refractive index (Na D-line)", "expmeth": "Standard Abbe refractometry", "data": [[["293.15"], ["0"], ["101"], ["1.33693", "0.00062"]], [["293.15"], ["0.1"], ["101"], ["1.38272", "0.00064"]], [["293.15"], ["0.2"], ["101"], ["1.3991", "0.00062"]], [["293.15"], ["0.295"], ["101"], ["1.40761", "0.00062"]], [["293.15"], ["0.4016"], ["101"], ["1.41358", "0.00063"]], [["293.15"], ["0.5002"], ["101"], ["1.41743", "0.00063"]], [["293.15"], ["0.5963"], ["101"], ["1.42022", "0.00063"]], [["293.15"], ["0.6997"], ["101"], ["1.42207", "0.00064"]], [["293.15"], ["0.8014"], ["101"], ["1.4237", "0.00064"]], [["293.15"], ["0.8988"], ["101"], ["1.42561", "0.00065"]], [["293.15"], ["1"], ["101"], ["1.42592", "0.00065"]], [["298.15"], ["0"], ["101"], ["1.33607", "0.00062"]], [["298.15"], ["0.1"], ["101"], ["1.38145", "0.00062"]], [["298.15"], ["0.2"], ["101"], ["1.39788", "0.00062"]], [["298.15"], ["0.295"], ["101"], ["1.40608", "0.00063"]], [["298.15"], ["0.4016"], ["101"], ["1.41195", "0.00063"]], [["298.15"], ["0.5002"], ["101"], ["1.41595", "0.00063"]], [["298.15"], ["0.5963"], ["101"], ["1.41855", "0.00063"]], [["298.15"], ["0.6997"], ["101"], ["1.4207", "0.00064"]], [["298.15"], ["0.8014"], ["101"], ["1.42246", "0.00064"]], [["298.15"], ["0.8988"], ["101"], ["1.42423", "0.00065"]], [["298.15"], ["1"], ["101"], ["1.42475", "0.00065"]], [["303.15"], ["0"], ["101"], ["1.33549", "0.00062"]], [["303.15"], ["0.1"], ["101"], ["1.38027", "0.00062"]], [["303.15"], ["0.2"], ["101"], ["1.39671", "0.00062"]], [["303.15"], ["0.295"], ["101"], ["1.40456", "0.00062"]], [["303.15"], ["0.4016"], ["101"], ["1.41044", "0.00063"]], [["303.15"], ["0.5002"], ["101"], ["1.4146", "0.00063"]], [["303.15"], ["0.5963"], ["101"], ["1.41703", "0.00063"]], [["303.15"], ["0.6997"], ["101"], ["1.41934", "0.00064"]], [["303.15"], ["0.8014"], ["101"], ["1.4212", "0.00064"]], [["303.15"], ["0.8988"], ["101"], ["1.42291", "0.00065"]], [["303.15"], ["1"], ["101"], ["1.42369", "0.00065"]], [["313.15"], ["0"], ["101"], ["1.33422", "0.00062"]], [["313.15"], ["0.1"], ["101"], ["1.37772", "0.00062"]], [["313.15"], ["0.2"], ["101"], ["1.39427", "0.00062"]], [["313.15"], ["0.295"], ["101"], ["1.40199", "0.00062"]], [["313.15"], ["0.4016"], ["101"], ["1.40774", "0.00063"]], [["313.15"], ["0.5002"], ["101"], ["1.41185", "0.00063"]], [["313.15"], ["0.5963"], ["101"], ["1.41448", "0.00063"]], [["313.15"], ["0.6997"], ["101"], ["1.41686", "0.00064"]], [["313.15"], ["0.8014"], ["101"], ["1.41879", "0.00064"]], [["313.15"], ["0.8988"], ["101"], ["1.42027", "0.00065"]], [["313.15"], ["1"], ["101"], ["1.42128", "0.00065"]], [["323.15"], ["0"], ["101"], ["1.33264", "0.00062"]], [["323.15"], ["0.1"], ["101"], ["1.37539", "0.00062"]], [["323.15"], ["0.2"], ["101"], ["1.39171", "0.00062"]], [["323.15"], ["0.295"], ["101"], ["1.39962", "0.00062"]], [["323.15"], ["0.4016"], ["101"], ["1.40524", "0.00063"]], [["323.15"], ["0.5002"], ["101"], ["1.40933", "0.00063"]], [["323.15"], ["0.5963"], ["101"], ["1.41195", "0.00063"]], [["323.15"], ["0.6997"], ["101"], ["1.41433", "0.00064"]], [["323.15"], ["0.8014"], ["101"], ["1.41642", "0.00064"]], [["323.15"], ["0.8988"], ["101"], ["1.41763", "0.00065"]], [["323.15"], ["1"], ["101"], ["1.419", "0.00065"]], [["333.15"], ["0"], ["101"], ["1.33085", "0.00062"]], [["333.15"], ["0.1"], ["101"], ["1.373", "0.00062"]], [["333.15"], ["0.2"], ["101"], ["1.3888", "0.00062"]], [["333.15"], ["0.295"], ["101"], ["1.39679", "0.00062"]], [["333.15"], ["0.4016"], ["101"], ["1.40255", "0.00063"]], [["333.15"], ["0.5002"], ["101"], ["1.40661", "0.00063"]], [["333.15"], ["0.5963"], ["101"], ["1.40958", "0.00063"]], [["333.15"], ["0.6997"], ["101"], ["1.4118", "0.00064"]], [["333.15"], ["0.8014"], ["101"], ["1.41396", "0.00064"]], [["333.15"], ["0.8988"], ["101"], ["1.41509", "0.00065"]], [["333.15"], ["1"], ["101"], ["1.41656", "0.00065"]], [["343.15"], ["0"], ["101"], ["1.32881", "0.00062"]], [["343.15"], ["0.1"], ["101"], ["1.37053", "0.00062"]], [["343.15"], ["0.2"], ["101"], ["1.386", "0.00062"]], [["343.15"], ["0.295"], ["101"], ["1.39386", "0.00063"]], [["343.15"], ["0.4016"], ["101"], ["1.39999", "0.00063"]], [["343.15"], ["0.5002"], ["101"], ["1.404", "0.00063"]], [["343.15"], ["0.5963"], ["101"], ["1.40693", "0.00063"]], [["343.15"], ["0.6997"], ["101"], ["1.4093", "0.00064"]], [["343.15"], ["0.8014"], ["101"], ["1.41123", "0.00064"]], [["343.15"], ["0.8988"], ["101"], ["1.41244", "0.00065"]], [["343.15"], ["1"], ["101"], ["1.41388", "0.00065"]], [["353.15"], ["0"], ["101"], ["1.32665", "0.00062"]], [["353.15"], ["0.1"], ["101"], ["1.36796", "0.00063"]], [["353.15"], ["0.2"], ["101"], ["1.38301", "0.00062"]], [["353.15"], ["0.295"], ["101"], ["1.39093", "0.00063"]], [["353.15"], ["0.4016"], ["101"], ["1.39746", "0.00063"]], [["353.15"], ["0.5002"], ["101"], ["1.40138", "0.00063"]], [["353.15"], ["0.5963"], ["101"], ["1.40435", "0.00063"]], [["353.15"], ["0.6997"], ["101"], ["1.40688", "0.00064"]], [["353.15"], ["0.8014"], ["101"], ["1.40884", "0.00064"]], [["353.15"], ["0.8988"], ["101"], ["1.41003", "0.00065"]], [["353.15"], ["1"], ["101"], ["1.41135", "0.00065"]]], "solvent": null, "footer": "", "ref": {"full": "Taib, M. M.; Murugesan, T. (2012) J. Chem. Eng. Data 57(1), 120-126.", "title": "Densities, Refractive Indices and Excess Properties of  Binary Mixtures of 1-Butyl-3-Methylimidazolium  Tetraflouroborate with Water and Monoethanolamine"}, "constr": [], "phases": ["Liquid"]}