{"ref": {"full": "Shishov, A.; Dubrovsky, I.; Kirichenko, S.; Bulatov, A. (2022) J. Mol. Liq. 347, 117987.", "title": "Behavior of quaternary ammonium salts and terpenoids-based deep eutectic solvents in aqueous phase"}, "constr": [], "phases": ["Liquid"], "components": [{"formula": "C<SUB>32</SUB>H<SUB>68</SUB>BrN", "name": "tetraoctylammonium bromide", "idout": "ACBIrh", "mw": "546.81", "sample": [["Source:", "commercial source"], ["Purification:", "estimated by the compiler"], ["Purity:", "99 mol %"]]}, {"name": "nonanoic acid", "formula": "C<SUB>9</SUB>H<SUB>18</SUB>O<SUB>2</SUB>", "mw": "158.24", "idout": "AAeWPG", "sample": [["Source:", "commercial source"], ["Purification:", "estimated by the compiler"], ["Purity:", "99 mol %"]]}], "title": "Refraction, surface tension, and speed of sound: Refractive index (Na D-line)", "dhead": [["Temperature, K", null], ["Pressure, kPa", null], ["Mole fraction of tetraoctylammonium bromide", "Liquid"], ["Refractive index (Na D-line)", "Liquid"]], "data": [[["298.1"], ["100"], ["0.333"], ["1.458", "0.0008"]]], "solvent": null, "footer": "", "expmeth": "Standard Abbe refractometry"}