{"dhead": [["Mole fraction of 1-butyl-3-methylimidazolium tetrafluoroborate", "Liquid"], ["Pressure, kPa", null], ["Temperature, K", null], ["Refractive index (Na D-line)", "Liquid"]], "title": "Refraction, surface tension, and speed of sound: Refractive index (Na D-line)", "components": [{"sample": [["Source:", "commercial source"], ["Purification:", "stated by supplier"], ["Purity:", "99 % (basis not specified)"]], "mw": "90.08", "idout": "AARQqy", "name": "dimethyl carbonate", "formula": "C<SUB>3</SUB>H<SUB>6</SUB>O<SUB>3</SUB>"}, {"sample": [["Source:", "commercial source"], ["Purification:", "stated by supplier"], ["Initial purity:", "99.8 % (basis not specified)"], ["Final purity:", "0.08 halide impurity mass %(dried by vacuum heating)"]], "idout": "AArYBF", "mw": "226.03", "formula": "C<SUB>8</SUB>H<SUB>15</SUB>BF<SUB>4</SUB>N<SUB>2</SUB>", "name": "1-butyl-3-methylimidazolium tetrafluoroborate"}], "expmeth": "Standard Abbe refractometry", "footer": "", "data": [[["0.1051"], ["101"], ["298.15"], ["1.3823", "0.0006"]], [["0.2047"], ["101"], ["298.15"], ["1.3926", "0.0006"]], [["0.2633"], ["101"], ["298.15"], ["1.3972", "0.0006"]], [["0.3037"], ["101"], ["298.15"], ["1.4", "0.0006"]], [["0.3291"], ["101"], ["298.15"], ["1.4014", "0.0006"]], [["0.3985"], ["101"], ["298.15"], ["1.4052", "0.0006"]], [["0.5021"], ["101"], ["298.15"], ["1.4097", "0.0006"]], [["0.598"], ["101"], ["298.15"], ["1.413", "0.0006"]], [["0.7168"], ["101"], ["298.15"], ["1.4164", "0.0006"]], [["0.8155"], ["101"], ["298.15"], ["1.4184", "0.0006"]], [["0.8848"], ["101"], ["298.15"], ["1.4198", "0.0006"]]], "solvent": null, "ref": {"title": "Density and Refractive Index for Binary Systems of the Ionic Liquid [Bmim][BF4] with Methanol, 1,3-Dichloropropane, and Dimethyl Carbonate", "full": "Iglesias-Otero, M. A.; Troncoso, J.; Carballo, E. (2007) J. Solution Chem. 36, 1219-1230."}, "constr": [], "phases": ["Liquid"]}