{"title": "Refraction, surface tension, and speed of sound: Refractive index (Na D-line)", "components": [{"sample": [["Source:", "commercial source"], ["Purification:", "stated by supplier"], ["Purity:", "99 % (basis not specified)"]], "mw": "287.08", "idout": "ABDKGa", "formula": "C<SUB>2</SUB>F<SUB>6</SUB>LiNO<SUB>4</SUB>S<SUB>2</SUB>", "name": "lithium bis((trifluoromethyl)sulfonyl)amide"}, {"sample": [["Source:", "commercial source"], ["Purification:", "stated by supplier"], ["Purity:", "99 % (basis not specified)"]], "formula": "C<SUB>3</SUB>H<SUB>6</SUB>O<SUB>3</SUB>", "name": "2-hydroxypropanoic acid", "idout": "AARQjp", "mw": "90.08"}], "dhead": [["Mole fraction of lithium bis((trifluoromethyl)sulfonyl)amide", "Liquid"], ["Temperature, K", null], ["Pressure, kPa", null], ["Refractive index (Na D-line)", "Liquid"]], "footer": "", "data": [[["0.333"], ["298.15"], ["100"], ["1.4099", "0.0005"]], [["0.333"], ["308.15"], ["100"], ["1.407", "0.0005"]], [["0.333"], ["318.15"], ["100"], ["1.404", "0.0005"]], [["0.333"], ["328.15"], ["100"], ["1.4013", "0.0005"]]], "solvent": null, "expmeth": "Standard Abbe refractometry", "ref": {"full": "Chen, Y.; Zhao, D.; Bai, Y.; Duan, Y.; Liu, C.; Gu, J.; Wang, X.; Sun, X.; Li, Y.; Zhang, L. (2022) J. Mol. Liq. 348, 118031.", "title": "Tuning refractive index of deep eutectic solvents"}, "constr": [], "phases": ["Liquid"]}