{"expmeth": "Standard Abbe refractometry", "solvent": null, "data": [[["288.15"], ["100"], ["1.4976", "0.003"]], [["293.15"], ["100"], ["1.4966", "0.003"]], [["298.15"], ["100"], ["1.4955", "0.003"]], [["303.15"], ["100"], ["1.4944", "0.003"]], [["308.15"], ["100"], ["1.4931", "0.003"]], [["313.15"], ["100"], ["1.4918", "0.003"]], [["318.15"], ["100"], ["1.4903", "0.003"]]], "footer": "", "dhead": [["Temperature, K", null], ["Pressure, kPa", null], ["Refractive index (Na D-line)", "Liquid"]], "components": [{"name": "1-(4-methoxybutyl)-3-methylimidazolium aspartate", "formula": "C<SUB>13</SUB>H<SUB>23</SUB>N<SUB>3</SUB>O<SUB>5</SUB>", "idout": "ABFxMP", "mw": "301.34", "sample": [["Source:", "synthesized by the authors"], ["Purification:", "NMR (proton)"], ["Purity:", "99 mol %(dried by oven heating;solvent extraction)"]]}], "title": "Refraction, surface tension, and speed of sound: Refractive index (Na D-line)", "phases": ["Liquid"], "ref": {"full": "Wang, J.; Wang, Y.; Wu, J.; Tong, J. (2022) J. Chem. Eng. Data 67(2), 321-326.", "title": "Polarity Prediction of New Ether-Functionalized Ionic Liquids-[COC4mim][Cl] and [COC4mim][Asp]"}, "constr": []}