{"title": "Refraction, surface tension, and speed of sound: Refractive index (Na D-line)", "components": [{"formula": "C<SUB>2</SUB>H<SUB>6</SUB>O", "name": "ethanol", "mw": "46.07", "idout": "AAIsrh", "sample": [["Source:", "commercial source"], ["Initial purification:", "stated by supplier"], ["Initial purity:", "99.8 % (basis not specified)"], ["Final purification:", "Karl Fischer titration"], ["Final purity:", "0.06 water mass %(none used)"]]}, {"name": "1-ethyl-3-methylimidazolium acetate", "formula": "C<SUB>8</SUB>H<SUB>14</SUB>N<SUB>2</SUB>O<SUB>2</SUB>", "idout": "AAgmaR", "mw": "170.21", "sample": [["Source:", "commercial source"], ["Initial purification:", "stated by supplier"], ["Initial purity:", "95 mass %"], ["Final purification:", "Karl Fischer titration"], ["Final purity:", "0.12 water mass %(dried by vacuum heating)"]]}], "dhead": [["Temperature, K", null], ["Mole fraction of 1-ethyl-3-methylimidazolium acetate", "Liquid"], ["Pressure, kPa", null], ["Refractive index (Na D-line)", "Liquid"]], "footer": "", "data": [[["278.15"], ["0"], ["100"], ["1.36775", "0.00032"]], [["278.15"], ["0.1"], ["100"], ["1.40274", "0.00034"]], [["278.15"], ["0.2"], ["100"], ["1.42727", "0.00039"]], [["278.15"], ["0.3"], ["100"], ["1.44617", "0.00045"]], [["278.15"], ["0.4"], ["100"], ["1.46096", "0.00053"]], [["278.15"], ["0.4999"], ["100"], ["1.47239", "0.00061"]], [["278.15"], ["0.5998"], ["100"], ["1.48313", "0.00069"]], [["278.15"], ["0.7001"], ["100"], ["1.48967", "0.00078"]], [["278.15"], ["0.799"], ["100"], ["1.49472", "0.00087"]], [["278.15"], ["0.9"], ["100"], ["1.49993", "0.00096"]], [["278.15"], ["1"], ["100"], ["1.50484", "0.001"]], [["288.15"], ["0"], ["100"], ["1.36343", "0.00032"]], [["288.15"], ["0.1"], ["100"], ["1.39952", "0.00035"]], [["288.15"], ["0.2"], ["100"], ["1.42397", "0.00039"]], [["288.15"], ["0.3"], ["100"], ["1.44312", "0.00046"]], [["288.15"], ["0.4"], ["100"], ["1.45756", "0.00053"]], [["288.15"], ["0.4999"], ["100"], ["1.46945", "0.00061"]], [["288.15"], ["0.5998"], ["100"], ["1.47907", "0.00069"]], [["288.15"], ["0.7001"], ["100"], ["1.48725", "0.00078"]], [["288.15"], ["0.799"], ["100"], ["1.49298", "0.00087"]], [["288.15"], ["0.9"], ["100"], ["1.49867", "0.00096"]], [["288.15"], ["1"], ["100"], ["1.50285", "0.001"]], [["298.15"], ["0"], ["100"], ["1.35957", "0.00032"]], [["298.15"], ["0.1"], ["100"], ["1.39609", "0.00035"]], [["298.15"], ["0.2"], ["100"], ["1.42075", "0.00039"]], [["298.15"], ["0.3"], ["100"], ["1.44003", "0.00046"]], [["298.15"], ["0.4"], ["100"], ["1.45473", "0.00053"]], [["298.15"], ["0.4999"], ["100"], ["1.4665", "0.00061"]], [["298.15"], ["0.5998"], ["100"], ["1.47631", "0.00069"]], [["298.15"], ["0.7001"], ["100"], ["1.4844", "0.00078"]], [["298.15"], ["0.799"], ["100"], ["1.49037", "0.00087"]], [["298.15"], ["0.9"], ["100"], ["1.49606", "0.00096"]], [["298.15"], ["1"], ["100"], ["1.50069", "0.001"]], [["308.15"], ["0"], ["100"], ["1.35534", "0.00032"]], [["308.15"], ["0.1"], ["100"], ["1.3926", "0.00035"]], [["308.15"], ["0.2"], ["100"], ["1.41801", "0.00039"]], [["308.15"], ["0.3"], ["100"], ["1.43681", "0.00046"]], [["308.15"], ["0.4"], ["100"], ["1.45202", "0.00053"]], [["308.15"], ["0.4999"], ["100"], ["1.46368", "0.00061"]], [["308.15"], ["0.5998"], ["100"], ["1.47348", "0.00069"]], [["308.15"], ["0.7001"], ["100"], ["1.48164", "0.00078"]], [["308.15"], ["0.799"], ["100"], ["1.48703", "0.00087"]], [["308.15"], ["0.9"], ["100"], ["1.49327", "0.00096"]], [["308.15"], ["1"], ["100"], ["1.49803", "0.001"]], [["318.15"], ["0"], ["100"], ["1.35142", "0.00032"]], [["318.15"], ["0.1"], ["100"], ["1.3893", "0.00035"]], [["318.15"], ["0.2"], ["100"], ["1.41451", "0.0004"]], [["318.15"], ["0.3"], ["100"], ["1.43396", "0.00046"]], [["318.15"], ["0.4"], ["100"], ["1.4488", "0.00053"]], [["318.15"], ["0.4999"], ["100"], ["1.46086", "0.00061"]], [["318.15"], ["0.5998"], ["100"], ["1.47064", "0.00069"]], [["318.15"], ["0.7001"], ["100"], ["1.47884", "0.00078"]], [["318.15"], ["0.799"], ["100"], ["1.48484", "0.00087"]], [["318.15"], ["0.9"], ["100"], ["1.49082", "0.00096"]], [["318.15"], ["1"], ["100"], ["1.49527", "0.001"]], [["328.15"], ["0"], ["100"], ["1.34704", "0.00032"]], [["328.15"], ["0.1"], ["100"], ["1.38551", "0.00035"]], [["328.15"], ["0.2"], ["100"], ["1.41144", "0.00039"]], [["328.15"], ["0.3"], ["100"], ["1.43089", "0.00046"]], [["328.15"], ["0.4"], ["100"], ["1.44639", "0.00053"]], [["328.15"], ["0.4999"], ["100"], ["1.45795", "0.00061"]], [["328.15"], ["0.5998"], ["100"], ["1.46777", "0.00069"]], [["328.15"], ["0.7001"], ["100"], ["1.47608", "0.00078"]], [["328.15"], ["0.799"], ["100"], ["1.48212", "0.00087"]], [["328.15"], ["0.9"], ["100"], ["1.48812", "0.00096"]], [["328.15"], ["1"], ["100"], ["1.49266", "0.001"]], [["338.15"], ["0"], ["100"], ["1.34252", "0.00033"]], [["338.15"], ["0.1"], ["100"], ["1.38222", "0.00038"]], [["338.15"], ["0.2"], ["100"], ["1.4083", "0.0004"]], [["338.15"], ["0.3"], ["100"], ["1.4278", "0.00046"]], [["338.15"], ["0.4"], ["100"], ["1.44299", "0.00053"]], [["338.15"], ["0.4999"], ["100"], ["1.45499", "0.00061"]], [["338.15"], ["0.5998"], ["100"], ["1.46504", "0.00069"]], [["338.15"], ["0.7001"], ["100"], ["1.47341", "0.00078"]], [["338.15"], ["0.799"], ["100"], ["1.47937", "0.00087"]], [["338.15"], ["0.9"], ["100"], ["1.48547", "0.00096"]], [["338.15"], ["1"], ["100"], ["1.48995", "0.001"]]], "solvent": null, "expmeth": "Standard Abbe refractometry", "ref": {"title": "Mixtures of Ethanol and the Ionic Liquid 1-Ethyl-3- methylimidazolium Acetate for the Fractionated Solubility of Biopolymers of Lignocellulosic Biomass", "full": "Castro, M. C.; Rodriguez, H.; Arce, A.; Soto, A. (2014) Ind. Eng. Chem. Res. 53, 11850-11861."}, "constr": [], "phases": ["Liquid"]}