{"constr": [], "ref": {"full": "Deetlefs, M.; Seddon, K. R.; Shara, M. (2006) Phys. Chem. Chem. Phys. 8, 642-649.", "title": "Predicting physical properties of ionic liquids"}, "phases": ["Liquid"], "components": [{"sample": [["Source:", "synthesized by the authors"], ["Purity analysis:", "dried by vacuum heating"]], "name": "1-butyl-3-methylimidazolium triiodide", "formula": "C<SUB>8</SUB>H<SUB>15</SUB>I<SUB>3</SUB>N<SUB>2</SUB>", "idout": "ABvzKe", "mw": "519.94"}], "title": "Refraction, surface tension, and speed of sound: Refractive index (Na D-line)", "dhead": [["Temperature, K", null], ["Pressure, kPa", null], ["Refractive index (Na D-line)", "Liquid"]], "data": [[["298.35"], ["101.325"], ["1.7", "0.01"]]], "solvent": null, "footer": "", "expmeth": "Interferometry"}