{"components": [{"sample": [["Source:", "commercial source"], ["Initial purification:", "stated by supplier"], ["Initial purity:", "99 mol %"], ["Final purification:", "NMR (proton)"], ["Final purity:", "99 mol %;0.025 water mass %;0.010 halide impurity mass %(de-gassed by evacuation)"]], "mw": "288.29", "idout": "ABDWVo", "name": "1-butyl-3-methylimidazolium trifluoromethanesulfonate", "formula": "C<SUB>9</SUB>H<SUB>15</SUB>F<SUB>3</SUB>N<SUB>2</SUB>O<SUB>3</SUB>S"}], "title": "Refraction, surface tension, and speed of sound: Refractive index (Na D-line)", "dhead": [["Temperature, K", null], ["Pressure, kPa", null], ["Refractive index (Na D-line)", "Liquid"]], "solvent": null, "data": [[["298.15"], ["100"], ["1.4368", "0.0011"]], [["298.15"], ["100"], ["1.4369", "0.0011"]], [["303.15"], ["100"], ["1.4355", "0.0011"]], [["303.15"], ["100"], ["1.4357", "0.0011"]], [["308.15"], ["100"], ["1.4342", "0.0011"]], [["308.15"], ["100"], ["1.4344", "0.0011"]], [["313.15"], ["100"], ["1.4333", "0.0011"]], [["313.15"], ["100"], ["1.4334", "0.0011"]], [["318.15"], ["100"], ["1.4319", "0.0011"]], [["318.15"], ["100"], ["1.432", "0.0011"]], [["323.15"], ["100"], ["1.4306", "0.0011"]]], "footer": "", "expmeth": "Standard Abbe refractometry", "constr": [], "ref": {"full": "Suneetha, P.; Krishna, T. S.; Gowrisankar, M.; Ramachandran, D. (2017) J. Mol. Liq. 238, 170-183.", "title": "Volumetric, acoustic and spectroscopic study of 1-butyl-3-methylimidazolium trifluoromethanesulfonate with alkoxyalkanols at different temperatures"}, "phases": ["Liquid"]}