{"ref": {"title": "Study on the separation of propylbenzene from alkanes using two methylsulfate-based ionic liquids at (313 and 333) K", "full": "Al-Jimaz, A. S.; Alkhaldi, K. H. A. E.; Al-Rashed, M. H.; Fandary, M. S.; AlTuwaim, M. S. (2013) Fluid Phase Equilib. 354, 29."}, "constr": [], "phases": ["Liquid"], "components": [{"mw": "222.26", "idout": "AAqmVN", "name": "1-ethyl-3-methylimidazolium methyl sulfate", "formula": "C<SUB>7</SUB>H<SUB>14</SUB>N<SUB>2</SUB>O<SUB>4</SUB>S", "sample": [["Source:", "commercial source"], ["Initial purification:", "stated by supplier"], ["Initial purity:", "98 mass %"], ["Final purification:", "Karl Fischer titration"], ["Final purity:", "0.0435 water mass %(molecular sieve treatment)"]]}], "title": "Refraction, surface tension, and speed of sound: Refractive index (Na D-line)", "dhead": [["Temperature, K", null], ["Pressure, kPa", null], ["Refractive index (Na D-line)", "Liquid"]], "data": [[["298.15"], ["101.325"], ["1.4741", "0.0011"]]], "solvent": null, "footer": "", "expmeth": "Standard Abbe refractometry"}