{"constr": [], "ref": {"full": "Sunkara, G. R.; Tadavarthi, M. M.; Tadekoru, V. K.; Tadikonda, S. K.; Bezawada, S. R. (2015) J. Chem. Eng. Data 60(3), 886-894.", "title": "Density, Refractive Index, and Speed of Sound of the Binary Mixture of 1-Butyl-3-methylimidazolium Tetrafluoroborate + N-Vinyl-2-pyrrolidinone from T = (298.15 to 323.15) K at Atmospheric Pressure"}, "phases": ["Liquid"], "dhead": [["Temperature, K", null], ["Pressure, kPa", null], ["Refractive index (Na D-line)", "Liquid"]], "components": [{"name": "1-butyl-3-methylimidazolium tetrafluoroborate", "formula": "C<SUB>8</SUB>H<SUB>15</SUB>BF<SUB>4</SUB>N<SUB>2</SUB>", "idout": "AArYBF", "mw": "226.03", "sample": [["Source:", "commercial source"], ["Purification:", "stated by supplier"], ["Purity:", "99 mass %"]]}], "title": "Refraction, surface tension, and speed of sound: Refractive index (Na D-line)", "expmeth": "Standard Abbe refractometry", "data": [[["298.15"], ["100"], ["1.42058", "0.00087"]], [["303.15"], ["100"], ["1.41913", "0.00087"]], [["308.15"], ["100"], ["1.41764", "0.00087"]], [["313.15"], ["100"], ["1.41621", "0.00087"]], [["318.15"], ["100"], ["1.41472", "0.00087"]], [["323.15"], ["100"], ["1.4133", "0.00087"]]], "solvent": null, "footer": ""}