{"phases": ["Liquid"], "ref": {"full": "Wang, J.; Li, Y.; Liu, H.; Tong, J. (2022) J. Mol. Liq. 351, 118621.", "title": "Surface tension, viscosity and electrical conductivity characteristics of new ether-functionalized ionic liquids"}, "constr": [], "expmeth": "Standard Abbe refractometry", "solvent": null, "data": [[["288.15"], ["100"], ["1.4674", "0.003"]], [["293.15"], ["100"], ["1.4664", "0.003"]], [["298.15"], ["100"], ["1.4648", "0.003"]], [["303.15"], ["100"], ["1.4634", "0.003"]], [["308.15"], ["100"], ["1.462", "0.003"]], [["313.15"], ["100"], ["1.4608", "0.003"]], [["318.15"], ["100"], ["1.4593", "0.003"]]], "footer": "", "dhead": [["Temperature, K", null], ["Pressure, kPa", null], ["Refractive index (Na D-line)", "Liquid"]], "components": [{"mw": "214.26", "idout": "AApKPw", "name": "1-(2-ethoxyethyl)-3-methylimidazolium acetate", "formula": "C<SUB>10</SUB>H<SUB>18</SUB>N<SUB>2</SUB>O<SUB>3</SUB>", "sample": [["Source:", "synthesized by the authors"], ["Purification:", "NMR (proton)"], ["Purity:", "99 mass %(dried by vacuum heating)"]]}], "title": "Refraction, surface tension, and speed of sound: Refractive index (Na D-line)"}