{"dhead": [["Temperature, K", null], ["Pressure, kPa", null], ["Refractive index (Na D-line)", "Liquid"]], "components": [{"mw": "247.31", "idout": "AAvdhf", "name": "1-ethyl-3-methylpyridinium ethylsulfate", "formula": "C<SUB>10</SUB>H<SUB>17</SUB>NO<SUB>4</SUB>S", "sample": [["Source:", "synthesized by the authors"], ["Purification:", "NMR (proton);Karl Fischer titration"], ["Purity:", "99 mass %;0.07 water mass %(dried by vacuum heating)"]]}], "title": "Refraction, surface tension, and speed of sound: Refractive index (Na D-line)", "expmeth": "Automatic Refractometer", "solvent": null, "data": [[["298.15"], ["101.325"], ["1.50591", "0.00022"]]], "footer": "", "constr": [], "ref": {"full": "Gonzalez, E. J.; Calvar, N.; Gonzalez, B.; Dominguez, A. (2010) J. Chem. Thermodyn. 42(6), 752-757.", "title": "Separation of toluene from alkanes using 1-ethyl-3-methylpyridinium ethylsulfate ionic liquid at T = 298.15 K and atmospheric pressure"}, "phases": ["Liquid"]}