{"constr": [], "ref": {"full": "Seoane, R. G.; Corderi, S.; Gomez, E.; Calvar, N.; Gonzalez, E. J.; Macedo, E. A.; Dominguez, A. (2012) Ind. Eng. Chem. Res. 51, 2492-2504.", "title": "Temperature Dependence and Structural Influence on the Thermophysical Properties of Eleven Commercial Ionic Liquids"}, "phases": ["Liquid"], "components": [{"sample": [["Source:", "commercial source"], ["Purification:", "stated by supplier"], ["Initial purity:", "99 mass %"], ["Final purity:", "0.052 water mass %;0.006 halide impurity mass %(dried by vacuum heating)"]], "name": "1-hexyl-3-methylimidazolium trifluoromethanesulfonate", "formula": "C<SUB>11</SUB>H<SUB>19</SUB>F<SUB>3</SUB>N<SUB>2</SUB>O<SUB>3</SUB>S", "idout": "ABIrWy", "mw": "316.34"}], "title": "Refraction, surface tension, and speed of sound: Refractive index (Na D-line)", "dhead": [["Temperature, K", null], ["Pressure, kPa", null], ["Refractive index (Na D-line)", "Liquid"]], "solvent": null, "data": [[["303.15"], ["101.325"], ["1.43926", "0.00047"]], [["308.15"], ["101.325"], ["1.43779", "0.00047"]], [["313.15"], ["101.325"], ["1.43633", "0.00047"]], [["318.15"], ["101.325"], ["1.43485", "0.00047"]], [["323.15"], ["101.325"], ["1.43342", "0.00047"]], [["328.15"], ["101.325"], ["1.432", "0.00047"]], [["333.15"], ["101.325"], ["1.43049", "0.00047"]], [["338.15"], ["101.325"], ["1.42905", "0.00047"]], [["343.15"], ["101.325"], ["1.42761", "0.00047"]]], "footer": "", "expmeth": "Standard Abbe refractometry"}