{"dhead": [["Temperature, K", null], ["Pressure, kPa", null], ["Refractive index (Na D-line)", "Liquid"]], "components": [{"mw": "236.29", "idout": "AAtWDT", "formula": "C<SUB>8</SUB>H<SUB>16</SUB>N<SUB>2</SUB>O<SUB>4</SUB>S", "name": "1-ethyl-3-methylimidazolium ethyl sulfate", "sample": [["Source:", "synthesized by the authors"], ["Purification:", "Karl Fischer titration"], ["Purity:", "0.01481 water mass %"]]}], "title": "Refraction, surface tension, and speed of sound: Refractive index (Na D-line)", "expmeth": "Standard Abbe refractometry", "solvent": null, "data": [[["298.15"], ["101.325"], ["1.47903", "0.0012"]]], "footer": "", "constr": [], "ref": {"title": "Extraction Ability of Nitrogen-Containing Compounds Involved in the Desulfurization of Fuels by Using Ionic Liquids", "full": "Alonso, L.; Arce, A.; Francisco, M.; Soto, A. (2010) J. Chem. Eng. Data 55(9), 3262-3267."}, "phases": ["Liquid"]}