{"phases": ["Liquid"], "constr": [], "ref": {"title": "Synthesis and Physical Properties of 1-Ethylpyridinium Ethylsulfate and its Binary Mixtures with Ethanol and 1-Propanol at Several Temperatures", "full": "Gonzalez, B.; Calvar, N.; Gomez, E.; Dominguez, I.; Dominguez, A. (2009) J. Chem. Eng. Data 54(4), 1353-1358."}, "expmeth": "Standard Abbe refractometry", "data": [[["298.15"], ["0"], ["101"], ["1.50252", "0.0007"]], [["298.15"], ["0.0476"], ["101"], ["1.50313", "0.0007"]], [["298.15"], ["0.1993"], ["101"], ["1.49585", "0.0007"]], [["298.15"], ["0.2992"], ["101"], ["1.48987", "0.00069"]], [["298.15"], ["0.5009"], ["101"], ["1.47321", "0.00069"]], [["298.15"], ["0.6033"], ["101"], ["1.46152", "0.00069"]], [["298.15"], ["0.7023"], ["101"], ["1.44693", "0.00068"]], [["298.15"], ["0.8016"], ["101"], ["1.42734", "0.00068"]], [["298.15"], ["0.899"], ["101"], ["1.40078", "0.00068"]], [["298.15"], ["0.9476"], ["101"], ["1.38342", "0.00068"]], [["298.15"], ["1"], ["101"], ["1.36023", "0.00068"]]], "solvent": null, "footer": "", "dhead": [["Temperature, K", null], ["Mole fraction of ethanol", "Liquid"], ["Pressure, kPa", null], ["Refractive index (Na D-line)", "Liquid"]], "components": [{"mw": "46.07", "idout": "AAIsrh", "name": "ethanol", "formula": "C<SUB>2</SUB>H<SUB>6</SUB>O", "sample": [["Source:", "commercial source"], ["Purification:", "stated by supplier"], ["Purity:", "99.8 mol %"], ["Purity analysis:", "de-gassed by boiling or ultrasonically;molecular sieve treatment"]]}, {"sample": [["Source:", "synthesized by the authors"], ["Purification:", "NMR (proton);Karl Fischer titration"], ["Purity:", "99 mass %;0.07 water mass %"]], "idout": "AAssoQ", "mw": "233.28", "formula": "C<SUB>9</SUB>H<SUB>15</SUB>NO<SUB>4</SUB>S", "name": "1-ethylpyridinium ethyl sulfate"}], "title": "Refraction, surface tension, and speed of sound: Refractive index (Na D-line)"}