{"dhead": [["Temperature, K", null], ["Pressure, kPa", null], ["Refractive index (Na D-line)", "Liquid"]], "components": [{"name": "1-methyl-3-propylimidazolium bis[(trifluoromethyl)sulfonyl]imide", "formula": "C<SUB>9</SUB>H<SUB>13</SUB>F<SUB>6</SUB>N<SUB>3</SUB>O<SUB>4</SUB>S<SUB>2</SUB>", "mw": "405.33", "idout": "ABZxGx", "sample": [["Source:", "commercial source"], ["Initial purification:", "stated by supplier"], ["Initial purity:", "99 mol %"], ["Final purification:", "not known;not known"], ["Final purity:", "0.009 water mass %;0.01 halide impurity mass %(dried by vacuum heating)"]]}], "title": "Refraction, surface tension, and speed of sound: Refractive index (Na D-line)", "expmeth": "Standard Abbe refractometry", "solvent": null, "data": [[["298.15"], ["101.325"], ["1.42516", "0.00037"]], [["313.15"], ["101"], ["1.42072", "0.00037"]]], "footer": "", "ref": {"full": "Corderi, S.; Gonzalez, B.; Calvar, N.; Gomez, E. (2013) Fluid Phase Equilib. 337, 11-17.", "title": "Ionic liquids as solvents to separate the azeotropic mixture hexane/ethanol"}, "constr": [], "phases": ["Liquid"]}