{"constr": [], "ref": {"title": "Thermodynamic behavior of {ethanol + butylpyridinium tetrafluoroborate} binary solution in the critical region", "full": "Tao, X.; Yin, T.; Xu, C.; Shen, W. (2017) J. Chem. Thermodyn. 110, 211-217."}, "phases": ["Liquid mixture 2", "Liquid mixture 1"], "title": "Refraction, surface tension, and speed of sound: Refractive index", "components": [{"sample": [["Source:", "commercial source"], ["Initial purification:", "stated by supplier"], ["Initial purity:", "99.5 mass %"], ["Final purification:", "Karl Fischer titration"], ["Final purity:", "0.0040 water mass %(molecular sieve treatment)"]], "idout": "AAIsrh", "mw": "46.07", "formula": "C<SUB>2</SUB>H<SUB>6</SUB>O", "name": "ethanol"}, {"name": "1-butylpyridinium tetrafluoroborate", "formula": "C<SUB>9</SUB>H<SUB>14</SUB>BF<SUB>4</SUB>N", "idout": "AAquMR", "mw": "223.02", "sample": [["Source:", "commercial source"], ["Initial purification:", "stated by supplier"], ["Initial purity:", "99 mass %"], ["Final purification:", "Karl Fischer titration"], ["Final purity:", "0.0520 water mass %(dried in a desiccator;dried by vacuum heating)"]]}], "dhead": [["Temperature, K", null], ["Pressure, kPa", null], ["Wavelength, A", "Liquid mixture 2"], ["Refractive index", "Liquid mixture 2"]], "footer": "", "data": [[["285.208"], ["100"], ["632.8"], ["1.419", "0.0003"]], [["286.713"], ["100"], ["632.8"], ["1.4171", "0.0003"]], [["288.273"], ["100"], ["632.8"], ["1.415", "0.0003"]], [["289.761"], ["100"], ["632.8"], ["1.4127", "0.0003"]], [["290.887"], ["100"], ["632.8"], ["1.411", "0.0003"]], [["291.919"], ["100"], ["632.8"], ["1.409", "0.0003"]], [["292.822"], ["100"], ["632.8"], ["1.4071", "0.0003"]], [["293.556"], ["100"], ["632.8"], ["1.4054", "0.0003"]], [["294.146"], ["100"], ["632.8"], ["1.4037", "0.0003"]], [["294.691"], ["100"], ["632.8"], ["1.4019", "0.0003"]], [["295.154"], ["100"], ["632.8"], ["1.4002", "0.0003"]], [["295.344"], ["100"], ["632.8"], ["1.3994", "0.0003"]], [["295.473"], ["100"], ["632.8"], ["1.3988", "0.0003"]], [["295.57"], ["100"], ["632.8"], ["1.3983", "0.0003"]], [["295.661"], ["100"], ["632.8"], ["1.3978", "0.0003"]], [["295.745"], ["100"], ["632.8"], ["1.3974", "0.0003"]], [["295.816"], ["100"], ["632.8"], ["1.3969", "0.0004"]], [["295.868"], ["100"], ["632.8"], ["1.3966", "0.0003"]], [["295.942"], ["100"], ["632.8"], ["1.3963", "0.0003"]], [["295.986"], ["100"], ["632.8"], ["1.396", "0.0004"]], [["296.017"], ["100"], ["632.8"], ["1.3957", "0.0004"]], [["296.061"], ["100"], ["632.8"], ["1.3954", "0.0004"]], [["296.099"], ["100"], ["632.8"], ["1.395", "0.0004"]], [["296.138"], ["100"], ["632.8"], ["1.3947", "0.0005"]], [["296.174"], ["100"], ["632.8"], ["1.3944", "0.0004"]], [["296.19"], ["100"], ["632.8"], ["1.3941", "0.0005"]], [["296.231"], ["100"], ["632.8"], ["1.3938", "0.0005"]], [["296.252"], ["100"], ["632.8"], ["1.3934", "0.0005"]], [["296.284"], ["100"], ["632.8"], ["1.393", "0.0007"]], [["296.315"], ["100"], ["632.8"], ["1.3926", "0.0007"]], [["296.341"], ["100"], ["632.8"], ["1.392", "0.0008"]], [["296.352"], ["100"], ["632.8"], ["1.3918", "0.0009"]], [["296.37"], ["100"], ["632.8"], ["1.3915", "0.0012"]], [["296.383"], ["100"], ["632.8"], ["1.391", "0.0014"]], [["296.398"], ["100"], ["632.8"], ["1.3905", "0.0012"]], [["296.407"], ["100"], ["632.8"], ["1.3901", "0.0013"]], [["296.421"], ["100"], ["632.8"], ["1.3895", "0.0016"]], [["296.432"], ["100"], ["632.8"], ["1.3889", "0.0017"]]], "solvent": null, "expmeth": "minimum deviation angle method"}