{"ref": {"full": "Almeida, H. F. D.; Lopes-da-Silva, J. A.; Freire, M. G.; Coutinho, J. A. P. (2013) J. Chem. Thermodyn. 57, 372-379.", "title": "Surface tension and refractive index of pure and water-saturated  tetradecyltrihexylphosphonium-based ionic liquids"}, "constr": [], "phases": ["Liquid"], "components": [{"idout": "AADYJk", "mw": "18.02", "name": "water", "formula": "H<SUB>2</SUB>O", "sample": [["Source:", "commercial source"], ["Purification:", "estimated by the compiler"], ["Purity:", "99 mol %(fractional distillation)"]]}, {"name": "tetradecyltrihexylphosphonium bromide", "formula": "C<SUB>32</SUB>H<SUB>68</SUB>BrP", "mw": "563.77", "idout": "ACEVSf", "sample": [["Source:", "commercial source"], ["Initial purification:", "stated by supplier"], ["Initial purity:", "97 mass %"], ["Final purification:", "NMR (proton);Karl Fischer titration"], ["Final purity:", "99 mass %;0.03 water mass %(chemical reagent treatment;dried by vacuum heating)"]]}], "title": "Refraction, surface tension, and speed of sound: Refractive index (Na D-line)", "dhead": [["Temperature, K", null], ["Pressure, kPa", null], ["Weight fraction of water", "Liquid"], ["Refractive index (Na D-line)", "Liquid"]], "data": [[["298.15"], ["101"], ["0.065"], ["1.4782", "0.00037"]], [["303.15"], ["101"], ["0.065"], ["1.47646", "0.00037"]], [["308.15"], ["101"], ["0.065"], ["1.47465", "0.00037"]], [["313.15"], ["101"], ["0.065"], ["1.47289", "0.00037"]], [["318.15"], ["101"], ["0.065"], ["1.47115", "0.00037"]], [["323.15"], ["101"], ["0.065"], ["1.46939", "0.00037"]], [["328.15"], ["101"], ["0.065"], ["1.46765", "0.00037"]], [["333.15"], ["101"], ["0.065"], ["1.46587", "0.00037"]], [["338.15"], ["101"], ["0.065"], ["1.46414", "0.00037"]], [["343.15"], ["101"], ["0.065"], ["1.46244", "0.00037"]], [["348.15"], ["101"], ["0.065"], ["1.46078", "0.00037"]], [["353.15"], ["101"], ["0.065"], ["1.45926", "0.00037"]]], "solvent": null, "footer": "", "expmeth": "Standard Abbe refractometry"}