{"dhead": [["Temperature, K", null], ["Mole fraction of 1-hexyl-3-methylimidazolium tetrafluoroborate", "Liquid"], ["Pressure, kPa", null], ["Wavelength, A", "Liquid"], ["Refractive index", "Liquid"]], "components": [{"idout": "AALcwx", "mw": "60.10", "name": "propan-2-ol", "formula": "C<SUB>3</SUB>H<SUB>8</SUB>O", "sample": [["Source:", "commercial source"], ["Initial purification:", "stated by supplier"], ["Initial purity:", "99 mass %"], ["Final purification:", "Karl Fischer titration"], ["Final purity:", "0.0064 water mass %(molecular sieve treatment)"]]}, {"sample": [["Source:", "commercial source"], ["Initial purification:", "stated by supplier"], ["Initial purity:", "99 mass %"], ["Final purification:", "Karl Fischer titration"], ["Final purity:", "0.0058 water mass %(dried in a desiccator;dried by vacuum heating)"]], "idout": "AAwscj", "mw": "254.08", "formula": "C<SUB>10</SUB>H<SUB>19</SUB>BF<SUB>4</SUB>N<SUB>2</SUB>", "name": "1-hexyl-3-methylimidazolium tetrafluoroborate"}], "title": "Refraction, surface tension, and speed of sound: Refractive index", "expmeth": "Minimum deviation angle method", "data": [[["279.705"], ["1"], ["82"], ["632.8"], ["1.4316", "0.0003"]], [["279.706"], ["0"], ["82"], ["632.8"], ["1.3815", "0.0003"]], [["280.334"], ["0.899"], ["82"], ["632.8"], ["1.4296", "0.0003"]], [["281.265"], ["0.802"], ["82"], ["632.8"], ["1.4274", "0.0003"]], [["281.353"], ["1"], ["82"], ["632.8"], ["1.4311", "0.0003"]], [["281.767"], ["0"], ["82"], ["632.8"], ["1.3806", "0.0003"]], [["282.36"], ["0.7"], ["82"], ["632.8"], ["1.4247", "0.0003"]], [["282.391"], ["0.899"], ["82"], ["632.8"], ["1.4291", "0.0003"]], [["282.698"], ["0.598"], ["82"], ["632.8"], ["1.422", "0.0003"]], [["282.761"], ["0.5"], ["82"], ["632.8"], ["1.4186", "0.0003"]], [["282.834"], ["0.802"], ["82"], ["632.8"], ["1.427", "0.0003"]], [["283.005"], ["1"], ["82"], ["632.8"], ["1.4307", "0.0003"]], [["283.863"], ["0"], ["82"], ["632.8"], ["1.3798", "0.0003"]], [["284.425"], ["0.7"], ["82"], ["632.8"], ["1.4242", "0.0003"]], [["284.43"], ["0.899"], ["82"], ["632.8"], ["1.4285", "0.0003"]], [["284.648"], ["1"], ["82"], ["632.8"], ["1.4303", "0.0003"]], [["284.696"], ["0.802"], ["82"], ["632.8"], ["1.4265", "0.0003"]], [["284.719"], ["0.598"], ["82"], ["632.8"], ["1.4214", "0.0003"]], [["284.852"], ["0.395"], ["82"], ["632.8"], ["1.4136", "0.0003"]], [["284.852"], ["0.5"], ["82"], ["632.8"], ["1.418", "0.0003"]], [["285.953"], ["0.7"], ["82"], ["632.8"], ["1.4238", "0.0003"]], [["286.2"], ["0.3"], ["82"], ["632.8"], ["1.4083", "0.0003"]], [["286.245"], ["0"], ["82"], ["632.8"], ["1.3787", "0.0003"]], [["286.268"], ["1"], ["82"], ["632.8"], ["1.4298", "0.0003"]], [["286.496"], ["0.899"], ["82"], ["632.8"], ["1.428", "0.0003"]], [["286.642"], ["0.802"], ["82"], ["632.8"], ["1.4259", "0.0003"]], [["286.79"], ["0.598"], ["82"], ["632.8"], ["1.4207", "0.0003"]], [["286.895"], ["0.5"], ["82"], ["632.8"], ["1.4174", "0.0003"]], [["286.897"], ["0.395"], ["82"], ["632.8"], ["1.4129", "0.0003"]], [["287.911"], ["1"], ["82"], ["632.8"], ["1.4294", "0.0003"]], [["288.015"], ["0.7"], ["82"], ["632.8"], ["1.4232", "0.0003"]], [["288.246"], ["0.3"], ["82"], ["632.8"], ["1.4076", "0.0003"]], [["288.576"], ["0.899"], ["82"], ["632.8"], ["1.4274", "0.0003"]], [["288.889"], ["0.5"], ["82"], ["632.8"], ["1.4168", "0.0003"]], [["288.893"], ["0.598"], ["82"], ["632.8"], ["1.4201", "0.0003"]], [["288.932"], ["0.395"], ["82"], ["632.8"], ["1.4123", "0.0003"]], [["288.993"], ["0"], ["82"], ["632.8"], ["1.3776", "0.0003"]], [["289.188"], ["0.802"], ["82"], ["632.8"], ["1.4252", "0.0003"]], [["289.584"], ["0.2"], ["82"], ["632.8"], ["1.4002", "0.0003"]], [["289.625"], ["1"], ["82"], ["632.8"], ["1.4289", "0.0003"]], [["290.108"], ["0.7"], ["82"], ["632.8"], ["1.4226", "0.0003"]], [["290.336"], ["0.3"], ["82"], ["632.8"], ["1.407", "0.0003"]], [["290.594"], ["0.899"], ["82"], ["632.8"], ["1.4269", "0.0003"]], [["290.857"], ["0.5"], ["82"], ["632.8"], ["1.4162", "0.0003"]], [["290.894"], ["0.395"], ["82"], ["632.8"], ["1.4117", "0.0003"]], [["290.954"], ["0.598"], ["82"], ["632.8"], ["1.4195", "0.0003"]], [["291.112"], ["0.2"], ["82"], ["632.8"], ["1.3998", "0.0003"]], [["291.193"], ["1"], ["82"], ["632.8"], ["1.4285", "0.0003"]], [["291.287"], ["0.802"], ["82"], ["632.8"], ["1.4246", "0.0003"]], [["291.345"], ["0.1"], ["82"], ["632.8"], ["1.3901", "0.0004"]], [["291.408"], ["0"], ["82"], ["632.8"], ["1.3765", "0.0003"]], [["292.13"], ["0.7"], ["82"], ["632.8"], ["1.422", "0.0003"]], [["292.694"], ["0.2"], ["82"], ["632.8"], ["1.3992", "0.0003"]], [["292.901"], ["0.3"], ["82"], ["632.8"], ["1.4061", "0.0003"]], [["292.994"], ["0.598"], ["82"], ["632.8"], ["1.4189", "0.0003"]], [["293.029"], ["0.5"], ["82"], ["632.8"], ["1.4155", "0.0003"]], [["293.032"], ["0.395"], ["82"], ["632.8"], ["1.4111", "0.0003"]], [["293.406"], ["0.1"], ["82"], ["632.8"], ["1.3894", "0.0003"]], [["294.232"], ["0.2"], ["82"], ["632.8"], ["1.3987", "0.0003"]], [["294.984"], ["0.3"], ["82"], ["632.8"], ["1.4055", "0.0003"]], [["295.098"], ["0.395"], ["82"], ["632.8"], ["1.4104", "0.0003"]], [["295.472"], ["0.1"], ["82"], ["632.8"], ["1.3887", "0.0003"]], [["295.787"], ["0.2"], ["82"], ["632.8"], ["1.3982", "0.0003"]], [["297.046"], ["0.3"], ["82"], ["632.8"], ["1.4048", "0.0003"]], [["297.138"], ["0.2"], ["82"], ["632.8"], ["1.3977", "0.0003"]], [["297.55"], ["0.1"], ["82"], ["632.8"], ["1.3879", "0.0003"]], [["299.591"], ["0.1"], ["82"], ["632.8"], ["1.3872", "0.0003"]], [["301.735"], ["0.1"], ["82"], ["632.8"], ["1.3864", "0.0003"]]], "solvent": null, "footer": "", "ref": {"full": "Zhang, X.; Xu, C.; Zheng, P.; Yin, T.; Shen, W. (2016) J. Chem. Thermodyn. 100, 116-123.", "title": "Asymmetric criticality of ionic solution containing 1-hexyl-3-methylimidazolium tetrafluoroborate and 2-propanol"}, "constr": [], "phases": ["Liquid"]}