{"title": "Refraction, surface tension, and speed of sound: Refractive index (Na D-line)", "components": [{"mw": "197.97", "idout": "AAmDom", "name": "1-ethyl-3-methylimidazolium tetrafluoroborate", "formula": "C<SUB>6</SUB>H<SUB>11</SUB>BF<SUB>4</SUB>N<SUB>2</SUB>", "sample": [["Source:", "synthesized by the authors"], ["Purification:", "estimation"], ["Purity:", "99 mass %(dried by vacuum heating;solvent extraction)"]]}], "dhead": [["Temperature, K", null], ["Pressure, kPa", null], ["Refractive index (Na D-line)", "Liquid"]], "footer": "", "data": [[["298.1"], ["101.325"], ["1.4125", "0.0041"]]], "solvent": null, "expmeth": "Standard Abbe refractometry", "constr": [], "ref": {"full": "Wang, R.; Qi, X.; Liu, S.; He, Y.; Deng, Y. (2016) J. Mol. Liq. 221, 339-345.", "title": "A comparison study on the properties of 1,3-dialkylimidazolium tetrafluoroborate salts prepared by halogen-free and traditional method"}, "phases": ["Liquid"]}