{"dhead": [["Temperature, K", null], ["Pressure, kPa", null], ["Refractive index (Na D-line)", "Liquid"]], "components": [{"mw": "216.29", "idout": "AApenP", "formula": "C<SUB>12</SUB>H<SUB>16</SUB>N<SUB>4</SUB>", "name": "1-pentylpyridinium dicyanamide", "sample": [["Source:", "synthesized by the authors"], ["Purification:", "NMR (proton)"], ["Purity:", "99 mass %(dried by vacuum heating)"]]}], "title": "Refraction, surface tension, and speed of sound: Refractive index (Na D-line)", "expmeth": "Standard Abbe refractometry", "data": [[["298.15"], ["101.325"], ["1.53", "0.0007"]]], "solvent": null, "footer": "", "constr": [], "ref": {"full": "Ma, X.-X.; Wei, J.; Guan, W.; Pan, Y.; Zheng, L.; Wu, Y.; Yang, J.-Z. (2015) J. Chem. Thermodyn. 89, 51-59.", "title": "Ionic parachor and its application to pyridinium-based ionic liquids of {[Cnpy][DCA] (n = 2, 3, 4, 5, 6)}"}, "phases": ["Liquid"]}