{"components": [{"sample": [["Source:", "commercial source"], ["Initial purification:", "stated by supplier"], ["Initial purity:", "99 mass %"], ["Final purification:", "not known"], ["Final purity:", "0.01 halide impurity mass %"]], "idout": "ABiCtA", "mw": "447.41", "name": "1-hexyl-3-methylimidazolium bis[(trifluoromethyl)sulfonyl]imide", "formula": "C<SUB>12</SUB>H<SUB>19</SUB>F<SUB>6</SUB>N<SUB>3</SUB>O<SUB>4</SUB>S<SUB>2</SUB>"}], "title": "Refraction, surface tension, and speed of sound: Refractive index (Na D-line)", "dhead": [["Temperature, K", null], ["Pressure, kPa", null], ["Refractive index (Na D-line)", "Liquid"]], "data": [[["293.15"], ["101.325"], ["1.431", "0.0016"]], [["303.15"], ["101.325"], ["1.4285", "0.0016"]], [["313.15"], ["101.325"], ["1.426", "0.0016"]], [["323.15"], ["101.325"], ["1.4235", "0.0016"]], [["333.15"], ["101.325"], ["1.4205", "0.0016"]], [["343.15"], ["101.325"], ["1.418", "0.0016"]]], "solvent": null, "footer": "", "expmeth": "Standard Abbe refractometry", "constr": [], "ref": {"full": "Montalban, M. G.; Bolivar, C. L.; Banos, F. G. D.; Villora, G. (2015) J. Chem. Eng. Data 60(7), 1986-1996.", "title": "Effect of Temperature, Anion, and Alkyl Chain Length on the Density and Refractive Index of 1-Alkyl-3-methylimidazolium-Based Ionic Liquids"}, "phases": ["Liquid"]}