{"expmeth": "Standard Abbe refractometry", "data": [[["288.15"], ["101"], ["1.488", "0.0004"]], [["293.15"], ["101"], ["1.487", "0.0004"]], [["298.15"], ["101"], ["1.4861", "0.0004"]], [["303.15"], ["101"], ["1.4851", "0.0004"]], [["308.15"], ["101"], ["1.4839", "0.0004"]], [["313.15"], ["101"], ["1.483", "0.0004"]], [["318.15"], ["101"], ["1.482", "0.0004"]], [["323.15"], ["101"], ["1.4809", "0.0004"]], [["328.15"], ["101"], ["1.4797", "0.0004"]]], "solvent": null, "footer": "", "dhead": [["Temperature, K", null], ["Pressure, kPa", null], ["Refractive index (Na D-line)", "Liquid"]], "components": [{"name": "3-butyl-1-methyl-1H-imidazolium propanoate", "formula": "C<SUB>11</SUB>H<SUB>20</SUB>N<SUB>2</SUB>O<SUB>2</SUB>", "idout": "AAoqOm", "mw": "212.29", "sample": [["Source:", "synthesized by the authors"], ["Purification:", "estimated by the compiler"], ["Purity:", "99 mass %(dried by vacuum heating)"]]}], "title": "Refraction, surface tension, and speed of sound: Refractive index (Na D-line)", "phases": ["Liquid"], "ref": {"full": "Hong, M.; Sun, A.; Liu, C.; Guan, W.; Tong, J.; Yang, J. -Z. (2013) Ind. Eng. Chem. Res. 52, 15679-15683.", "title": "Physico-chemical Properties of 1.Alkyl-3-methylimidazolium Propionate Ionic Liquids {[Cnmim][Pro](n = 3, 4, 5, 6)} from 288.15 K to 328.15 K"}, "constr": []}