{"ref": {"title": "Highly precise (liquid + liquid) equilibrium and heat capacity measurements near the critical point for [Bmim][BF4] + 1H, 1H, 2H, 2H perfluoroctanol", "full": "Perez-Sanchez, G.; Troncoso, J.; Losada-Perez, P.; Mendez-Castro, P.; Romani, L. (2013) J. Chem. Thermodyn. 65, 131-137."}, "constr": [], "phases": ["Liquid mixture 1", "Liquid mixture 2"], "dhead": [["Temperature, K", null], ["Pressure, kPa", null], ["Wavelength, A", "Liquid mixture 1"], ["Refractive index", "Liquid mixture 1"]], "components": [{"idout": "ABSBzL", "mw": "364.11", "name": "1H,1H,2H,2H-perfluorooctanol", "formula": "C<SUB>8</SUB>H<SUB>5</SUB>F<SUB>13</SUB>O", "sample": [["Source:", "commercial source"], ["Purification:", "stated by supplier"], ["Purity:", "99 mol %"], ["Purity analysis:", "molecular sieve treatment"]]}, {"mw": "226.03", "idout": "AArYBF", "name": "1-butyl-3-methylimidazolium tetrafluoroborate", "formula": "C<SUB>8</SUB>H<SUB>15</SUB>BF<SUB>4</SUB>N<SUB>2</SUB>", "sample": [["Source:", "commercial source"], ["Purification:", "stated by supplier"], ["Purity:", "99 mol %"], ["Purity analysis:", "dried by vacuum heating"]]}], "title": "Refraction, surface tension, and speed of sound: Refractive index", "expmeth": "Standard Abbe refractometry", "data": [[["295.02"], ["101"], ["633"], ["1.417", "0.002"]], [["296.75"], ["101"], ["633"], ["1.4162", "0.002"]], [["297.47"], ["101"], ["633"], ["1.4157", "0.002"]], [["297.98"], ["101"], ["633"], ["1.4153", "0.0021"]], [["298.73"], ["101"], ["633"], ["1.4146", "0.0021"]], [["299.44"], ["101"], ["633"], ["1.414", "0.002"]], [["299.96"], ["101"], ["633"], ["1.4137", "0.0021"]], [["300.43"], ["101"], ["633"], ["1.4128", "0.0021"]], [["300.92"], ["101"], ["633"], ["1.4119", "0.0021"]], [["301.42"], ["101"], ["633"], ["1.4115", "0.0021"]], [["301.96"], ["101"], ["633"], ["1.4102", "0.002"]], [["302.44"], ["101"], ["633"], ["1.4096", "0.002"]], [["302.94"], ["101"], ["633"], ["1.4078", "0.0021"]], [["303.54"], ["101"], ["633"], ["1.4045", "0.0021"]]], "solvent": null, "footer": ""}