{"ref": {"full": "Chennuri, B. K.; Losetty, V.; Wilfred, C. D.; Gardas, R. L. (2017) J. Mol. Liq. 241, 246-254.", "title": "Thermophysical properties of N-phenyl-N-ethanol ammonium carboxylate based ionic liquids: Measurements, correlations and COSMO-RS study"}, "constr": [], "phases": ["Liquid"], "components": [{"mw": "211.26", "idout": "AAogRP", "formula": "C<SUB>11</SUB>H<SUB>17</SUB>NO<SUB>3</SUB>", "name": "N-(2-hydroxyethyl)benzenaminium propionate", "sample": [["Source:", "synthesized by the authors"], ["Purification:", "NMR (proton);Karl Fischer titration"], ["Purity:", "97 mass %;0.1276 water mass %(dried by vacuum heating)"]]}], "title": "Refraction, surface tension, and speed of sound: Refractive index (Na D-line)", "dhead": [["Pressure, kPa", null], ["Temperature, K", null], ["Refractive index (Na D-line)", "Liquid"]], "data": [[["100"], ["303.15"], ["1.5358", "0.0021"]]], "solvent": null, "footer": "", "expmeth": "Standard Abbe refractometry"}