{"title": "Refraction, surface tension, and speed of sound: Refractive index (Na D-line)", "components": [{"sample": [["Source:", "commercial source"], ["Purification:", "estimated by the compiler;Karl Fischer titration"], ["Purity:", "99 mass %;0.015 water mass %(dried by vacuum heating)"]], "formula": "C<SUB>9</SUB>H<SUB>18</SUB>N<SUB>2</SUB>O<SUB>4</SUB>S", "name": "1-butyl-3-methylimidazolium methyl sulfate", "idout": "AAwHNg", "mw": "250.31"}], "dhead": [["Temperature, K", null], ["Pressure, kPa", null], ["Refractive index (Na D-line)", "Liquid"]], "footer": "", "data": [[["293.15"], ["101.325"], ["1.47876", "0.00072"]], [["298.15"], ["101.325"], ["1.47775", "0.00072"]], [["313.15"], ["101.325"], ["1.47473", "0.00073"]], [["333.15"], ["101.325"], ["1.46971", "0.00074"]]], "solvent": null, "expmeth": "Standard Abbe refractometry", "ref": {"title": "Densities and refractive indices of imidazolium- and phosphonium-based ionic liquids: Effect of temperature, alkyl chain length, and anion", "full": "Tariq, M.; Forte, P. A. S.; Gomes, M. F. C.; Lopes, J. N. C.; Rebelo, L. P. N. (2009) J. Chem. Thermodyn. 41(6), 790-798."}, "constr": [], "phases": ["Liquid"]}