{"ref": {"full": "Tao, X.; Yin, T.; Shen, W. (2017) Phys. Chem. Chem. Phys. 19(34), 22826-22835.", "title": "Critical universality and asymmetry of ionic solution {iodobenzene + 1-decyl-3-methyl-imidazolium bis(trifluorosulfonyl)imide}"}, "constr": [], "phases": ["Liquid"], "components": [{"name": "iodobenzene", "formula": "C<SUB>6</SUB>H<SUB>5</SUB>I", "mw": "204.01", "idout": "AAnMwO", "sample": [["Source:", "commercial source"], ["Initial purification:", "stated by supplier"], ["Initial purity:", "98 mass %"], ["Final purification:", "Karl Fischer titration"], ["Final purity:", "0.0300 water mass %(dried by vacuum heating;molecular sieve treatment)"]]}, {"sample": [["Source:", "commercial source"], ["Initial purification:", "stated by supplier"], ["Initial purity:", "99 mass %"], ["Final purification:", "Karl Fischer titration"], ["Final purity:", "0.0350 water mass %(dried in a desiccator;dried by vacuum heating)"]], "idout": "ABsrrg", "mw": "503.52", "formula": "C<SUB>16</SUB>H<SUB>27</SUB>F<SUB>6</SUB>N<SUB>3</SUB>O<SUB>4</SUB>S<SUB>2</SUB>", "name": "1-decyl-3-methylimidazolium bis(trifluoromethylsulfonyl)amide"}], "title": "Refraction, surface tension, and speed of sound: Refractive index", "dhead": [["Mole fraction of 1-decyl-3-methylimidazolium bis(trifluoromethylsulfonyl)amide", "Liquid"], ["Temperature, K", null], ["Pressure, kPa", null], ["Wavelength, A", "Liquid"], ["Refractive index", "Liquid"]], "data": [[["0"], ["281.893"], ["100"], ["632.8"], ["1.6228", "0.0005"]], [["0"], ["282.917"], ["100"], ["632.8"], ["1.6223", "0.0005"]], [["0"], ["284.303"], ["100"], ["632.8"], ["1.6215", "0.0005"]], [["0"], ["285.768"], ["100"], ["632.8"], ["1.6207", "0.0006"]], [["0"], ["287.209"], ["100"], ["632.8"], ["1.6199", "0.0005"]], [["0"], ["288.475"], ["100"], ["632.8"], ["1.6192", "0.0005"]], [["0"], ["289.809"], ["100"], ["632.8"], ["1.6185", "0.0005"]], [["0"], ["291.287"], ["100"], ["632.8"], ["1.6177", "0.0005"]], [["0"], ["292.607"], ["100"], ["632.8"], ["1.6169", "0.0005"]], [["0"], ["293.769"], ["100"], ["632.8"], ["1.6163", "0.0005"]], [["0"], ["294.993"], ["100"], ["632.8"], ["1.6156", "0.0005"]], [["0"], ["296.717"], ["100"], ["632.8"], ["1.6147", "0.0005"]], [["0"], ["297.766"], ["100"], ["632.8"], ["1.6141", "0.0005"]], [["0.01"], ["282.848"], ["100"], ["632.8"], ["1.6159", "0.0026"]], [["0.01"], ["283.921"], ["100"], ["632.8"], ["1.6153", "0.0019"]], [["0.01"], ["284.989"], ["100"], ["632.8"], ["1.6148", "0.0018"]], [["0.01"], ["286.201"], ["100"], ["632.8"], ["1.6141", "0.002"]], [["0.01"], ["287.337"], ["100"], ["632.8"], ["1.6135", "0.0018"]], [["0.01"], ["288.435"], ["100"], ["632.8"], ["1.6129", "0.0026"]], [["0.02"], ["291.197"], ["100"], ["632.8"], ["1.605", "0.0022"]], [["0.02"], ["292.394"], ["100"], ["632.8"], ["1.6043", "0.0022"]], [["0.02"], ["293.516"], ["100"], ["632.8"], ["1.6037", "0.002"]], [["0.02"], ["294.723"], ["100"], ["632.8"], ["1.6031", "0.0021"]], [["0.02"], ["296.582"], ["100"], ["632.8"], ["1.6021", "0.0022"]], [["0.02"], ["297.711"], ["100"], ["632.8"], ["1.6015", "0.0026"]], [["0.039"], ["292.506"], ["100"], ["632.8"], ["1.5938", "0.0021"]], [["0.039"], ["293.809"], ["100"], ["632.8"], ["1.5932", "0.0024"]], [["0.039"], ["295.028"], ["100"], ["632.8"], ["1.5926", "0.0023"]], [["0.039"], ["297.012"], ["100"], ["632.8"], ["1.5916", "0.002"]], [["0.039"], ["298.056"], ["100"], ["632.8"], ["1.591", "0.002"]], [["0.039"], ["299.135"], ["100"], ["632.8"], ["1.5905", "0.002"]], [["0.058"], ["292.815"], ["100"], ["632.8"], ["1.5842", "0.0023"]], [["0.058"], ["293.954"], ["100"], ["632.8"], ["1.5837", "0.002"]], [["0.058"], ["295.01"], ["100"], ["632.8"], ["1.5831", "0.002"]], [["0.058"], ["296.343"], ["100"], ["632.8"], ["1.5825", "0.0021"]], [["0.058"], ["297.341"], ["100"], ["632.8"], ["1.582", "0.0023"]], [["0.058"], ["298.706"], ["100"], ["632.8"], ["1.5813", "0.0008"]], [["0.078"], ["291.181"], ["100"], ["632.8"], ["1.5752", "0.0021"]], [["0.078"], ["292.5"], ["100"], ["632.8"], ["1.5746", "0.0017"]], [["0.078"], ["294.426"], ["100"], ["632.8"], ["1.5737", "0.0021"]], [["0.078"], ["295.618"], ["100"], ["632.8"], ["1.5731", "0.0018"]], [["0.078"], ["296.69"], ["100"], ["632.8"], ["1.5727", "0.002"]], [["0.078"], ["298.077"], ["100"], ["632.8"], ["1.572", "0.002"]], [["0.096"], ["288.647"], ["100"], ["632.8"], ["1.5684", "0.0021"]], [["0.096"], ["289.582"], ["100"], ["632.8"], ["1.5679", "0.0016"]], [["0.096"], ["291.305"], ["100"], ["632.8"], ["1.5671", "0.0018"]], [["0.096"], ["293.314"], ["100"], ["632.8"], ["1.5662", "0.002"]], [["0.096"], ["295.39"], ["100"], ["632.8"], ["1.5652", "0.002"]], [["0.096"], ["296.746"], ["100"], ["632.8"], ["1.5646", "0.0018"]], [["0.12"], ["286.153"], ["100"], ["632.8"], ["1.5604", "0.0019"]], [["0.12"], ["288.357"], ["100"], ["632.8"], ["1.5594", "0.002"]], [["0.12"], ["289.616"], ["100"], ["632.8"], ["1.5588", "0.0015"]], [["0.12"], ["291.011"], ["100"], ["632.8"], ["1.5582", "0.0017"]], [["0.12"], ["292.32"], ["100"], ["632.8"], ["1.5576", "0.0015"]], [["0.12"], ["293.434"], ["100"], ["632.8"], ["1.5571", "0.0016"]], [["0.149"], ["283.747"], ["100"], ["632.8"], ["1.5508", "0.0014"]], [["0.149"], ["285.856"], ["100"], ["632.8"], ["1.5498", "0.0013"]], [["0.149"], ["287.768"], ["100"], ["632.8"], ["1.549", "0.0013"]], [["0.149"], ["289.601"], ["100"], ["632.8"], ["1.5482", "0.0015"]], [["0.149"], ["290.715"], ["100"], ["632.8"], ["1.5477", "0.0016"]], [["0.149"], ["292.368"], ["100"], ["632.8"], ["1.5469", "0.0015"]], [["0.176"], ["282.788"], ["100"], ["632.8"], ["1.5425", "0.0018"]], [["0.176"], ["283.837"], ["100"], ["632.8"], ["1.5421", "0.0014"]], [["0.176"], ["284.802"], ["100"], ["632.8"], ["1.5417", "0.0018"]], [["0.176"], ["285.999"], ["100"], ["632.8"], ["1.5412", "0.0013"]], [["0.176"], ["287.64"], ["100"], ["632.8"], ["1.5405", "0.0013"]], [["0.176"], ["289.117"], ["100"], ["632.8"], ["1.5398", "0.0015"]], [["1"], ["281.893"], ["100"], ["632.8"], ["1.4389", "0.0003"]], [["1"], ["282.851"], ["100"], ["632.8"], ["1.4386", "0.0003"]], [["1"], ["283.73"], ["100"], ["632.8"], ["1.4384", "0.0003"]], [["1"], ["284.761"], ["100"], ["632.8"], ["1.4381", "0.0003"]], [["1"], ["286.129"], ["100"], ["632.8"], ["1.4376", "0.0003"]], [["1"], ["287.603"], ["100"], ["632.8"], ["1.4372", "0.0003"]], [["1"], ["288.885"], ["100"], ["632.8"], ["1.4368", "0.0003"]], [["1"], ["290.015"], ["100"], ["632.8"], ["1.4364", "0.0003"]], [["1"], ["291.059"], ["100"], ["632.8"], ["1.4361", "0.0003"]], [["1"], ["292.764"], ["100"], ["632.8"], ["1.4356", "0.0003"]], [["1"], ["293.898"], ["100"], ["632.8"], ["1.4352", "0.0003"]], [["1"], ["295.743"], ["100"], ["632.8"], ["1.4347", "0.0003"]], [["1"], ["297.251"], ["100"], ["632.8"], ["1.4342", "0.0003"]]], "solvent": null, "footer": "", "expmeth": "minimal deviation angle"}