{"constr": [], "ref": {"full": "Wang, X.; Wang, M.; Chen, Z.; Tao, X.; Shen, W. (2016) J. Mol. Liq. 224, 284-289.", "title": "Critical phenomena of {1-butanol + 1-ethyl-3-methylimidazolium bis(trifluoromethylsulfonyl)imide} binary solution"}, "phases": ["Liquid"], "title": "Refraction, surface tension, and speed of sound: Refractive index", "components": [{"sample": [["Source:", "commercial source"], ["Purification:", "estimation;Karl Fischer titration"], ["Purity:", "99 mass %;0.04 water mass %(dried in a desiccator;dried by vacuum heating)"]], "name": "1-ethyl-3-methylimidazolium bis((trifluoromethyl)sulfonyl)imide", "formula": "C<SUB>8</SUB>H<SUB>11</SUB>F<SUB>6</SUB>N<SUB>3</SUB>O<SUB>4</SUB>S<SUB>2</SUB>", "mw": "391.30", "idout": "ABXNZH"}], "dhead": [["Temperature, K", null], ["Pressure, kPa", null], ["Wavelength, A", "Liquid"], ["Refractive index", "Liquid"]], "footer": "", "data": [[["305.187"], ["100"], ["632.8"], ["1.4196", "0.0003"]], [["306.983"], ["100"], ["632.8"], ["1.4191", "0.0003"]], [["308.821"], ["100"], ["632.8"], ["1.4186", "0.0003"]], [["310.296"], ["100"], ["632.8"], ["1.4181", "0.0003"]], [["311.946"], ["100"], ["632.8"], ["1.4177", "0.0003"]], [["313.581"], ["100"], ["632.8"], ["1.4172", "0.0003"]], [["315.115"], ["100"], ["632.8"], ["1.4168", "0.0003"]], [["316.746"], ["100"], ["632.8"], ["1.4163", "0.0003"]], [["318.383"], ["100"], ["632.8"], ["1.4158", "0.0003"]], [["320.004"], ["100"], ["632.8"], ["1.4154", "0.0003"]], [["321.78"], ["100"], ["632.8"], ["1.4148", "0.0003"]], [["321.857"], ["100"], ["632.8"], ["1.4148", "0.0003"]]], "solvent": null, "expmeth": "direct measurement of refraction angle"}