{"dhead": [["Temperature, K", null], ["Pressure, kPa", null], ["Refractive index (Na D-line)", "Liquid"]], "components": [{"name": "1-propylpyridinium tetrafluoroborate", "formula": "C<SUB>8</SUB>H<SUB>12</SUB>BF<SUB>4</SUB>N", "mw": "208.99", "idout": "AAoJgc", "sample": [["Source:", "commercial source"], ["Purification:", "stated by supplier"], ["Purity:", "98 mass %"]]}], "title": "Refraction, surface tension, and speed of sound: Refractive index (Na D-line)", "expmeth": "Standard Abbe refractometry", "data": [[["293.15"], ["101.325"], ["1.44588", "0.00057"]], [["303.15"], ["101.325"], ["1.44322", "0.00057"]], [["313.15"], ["101.325"], ["1.44057", "0.00057"]], [["323.15"], ["101.325"], ["1.43792", "0.00057"]]], "solvent": null, "footer": "", "constr": [], "ref": {"title": "Thermophysical Properties of the Binary Mixture 1-Propylpyridinium Tetrafluoroborate with Methanol", "full": "Garcia-Mardones, M.; Martin, S.; Gascon, I.; Lafuente, C. (2014) J. Chem. Eng. Data 59(5), 1564-1573."}, "phases": ["Liquid"]}