{"components": [{"sample": [["Source:", "commercial source"], ["Purification:", "estimated by the compiler"], ["Purity:", "99 % (basis not specified)"]], "idout": "AAIsrh", "mw": "46.07", "name": "ethanol", "formula": "C<SUB>2</SUB>H<SUB>6</SUB>O"}, {"formula": "C<SUB>6</SUB>H<SUB>15</SUB>NO<SUB>2</SUB>", "name": "butylammonium acetate", "mw": "133.19", "idout": "AAZfnG", "sample": [["Source:", "synthesized by the authors"], ["Purification:", "Karl Fischer titration;NMR (proton)"], ["Purity:", "0.02 water mass %;99 % (basis not specified)"]]}], "title": "Refraction, surface tension, and speed of sound: Refractive index (Na D-line)", "dhead": [["Temperature, K", null], ["Mole fraction of butylammonium acetate", "Liquid"], ["Pressure, kPa", null], ["Refractive index (Na D-line)", "Liquid"]], "data": [[["298.15"], ["0.0319"], ["101.3"], ["1.3681", "0.0011"]], [["298.15"], ["0.0608"], ["101.3"], ["1.3731", "0.0011"]], [["298.15"], ["0.0999"], ["101.3"], ["1.3804", "0.0011"]], [["298.15"], ["0.1977"], ["101.3"], ["1.3965", "0.0011"]], [["298.15"], ["0.2965"], ["101.3"], ["1.4073", "0.0011"]], [["298.15"], ["0.4008"], ["101.3"], ["1.4152", "0.0011"]], [["298.15"], ["0.5005"], ["101.3"], ["1.4219", "0.0011"]], [["298.15"], ["0.6454"], ["101.3"], ["1.4292", "0.0011"]], [["298.15"], ["0.8019"], ["101.3"], ["1.436", "0.0011"]], [["298.15"], ["0.9009"], ["101.3"], ["1.4396", "0.0011"]]], "solvent": null, "footer": "", "expmeth": "Standard Abbe refractometry", "ref": {"full": "Xu, Y. J.; Yao, J.; Wang, C.; Li, H. (2012) J. Chem. Eng. Data 57(2), 298-308.", "title": "Density, Viscosity, and Refractive Index Properties for the Binary  Mixtures of n-Butylammonium Acetate Ionic Liquid + Alkanols at  Several Temperatures"}, "constr": [], "phases": ["Liquid"]}