{"constr": [], "ref": {"full": "Wang, X.; Wang, M.; Chen, Z.; Tao, X.; Shen, W. (2016) J. Mol. Liq. 224, 284-289.", "title": "Critical phenomena of {1-butanol + 1-ethyl-3-methylimidazolium bis(trifluoromethylsulfonyl)imide} binary solution"}, "phases": ["Liquid"], "title": "Refraction, surface tension, and speed of sound: Refractive index", "components": [{"mw": "74.12", "idout": "AAONVE", "name": "butan-1-ol", "formula": "C<SUB>4</SUB>H<SUB>10</SUB>O", "sample": [["Source:", "commercial source"], ["Purification:", "estimation;Karl Fischer titration"], ["Purity:", "99.9 mass %;0.02 water mass %(molecular sieve treatment)"]]}, {"formula": "C<SUB>8</SUB>H<SUB>11</SUB>F<SUB>6</SUB>N<SUB>3</SUB>O<SUB>4</SUB>S<SUB>2</SUB>", "name": "1-ethyl-3-methylimidazolium bis((trifluoromethyl)sulfonyl)imide", "mw": "391.30", "idout": "ABXNZH", "sample": [["Source:", "commercial source"], ["Purification:", "estimation;Karl Fischer titration"], ["Purity:", "99 mass %;0.04 water mass %(dried in a desiccator;dried by vacuum heating)"]]}], "dhead": [["Temperature, K", null], ["Mole fraction of 1-ethyl-3-methylimidazolium bis((trifluoromethyl)sulfonyl)imide", "Liquid"], ["Pressure, kPa", null], ["Wavelength, A", "Liquid"], ["Refractive index", "Liquid"]], "footer": "", "data": [[["307.136"], ["0.433"], ["100"], ["632.8"], ["1.4106", "0.0003"]], [["309.107"], ["0.412"], ["100"], ["632.8"], ["1.4094", "0.0003"]], [["310.692"], ["0.399"], ["100"], ["632.8"], ["1.4085", "0.0002"]], [["312.126"], ["0.38"], ["100"], ["632.8"], ["1.4075", "0.0002"]], [["313.37"], ["0.367"], ["100"], ["632.8"], ["1.4067", "0.0003"]], [["314.433"], ["0.356"], ["100"], ["632.8"], ["1.406", "0.0003"]], [["315.439"], ["0.345"], ["100"], ["632.8"], ["1.4053", "0.0002"]], [["316.374"], ["0.329"], ["100"], ["632.8"], ["1.4045", "0.0002"]], [["317.197"], ["0.319"], ["100"], ["632.8"], ["1.4039", "0.0003"]], [["317.903"], ["0.305"], ["100"], ["632.8"], ["1.4032", "0.0002"]], [["318.52"], ["0.294"], ["100"], ["632.8"], ["1.4026", "0.0003"]], [["319.066"], ["0.282"], ["100"], ["632.8"], ["1.402", "0.0002"]], [["319.518"], ["0.272"], ["100"], ["632.8"], ["1.4015", "0.0003"]], [["319.898"], ["0.262"], ["100"], ["632.8"], ["1.401", "0.0002"]], [["320.217"], ["0.254"], ["100"], ["632.8"], ["1.4006", "0.0003"]], [["320.479"], ["0.244"], ["100"], ["632.8"], ["1.4001", "0.0003"]], [["320.684"], ["0.238"], ["100"], ["632.8"], ["1.3998", "0.0003"]], [["320.864"], ["0.232"], ["100"], ["632.8"], ["1.3995", "0.0003"]], [["321.018"], ["0.225"], ["100"], ["632.8"], ["1.3992", "0.0003"]], [["321.158"], ["0.217"], ["100"], ["632.8"], ["1.3988", "0.0003"]], [["321.273"], ["0.21"], ["100"], ["632.8"], ["1.3985", "0.0003"]], [["321.354"], ["0.204"], ["100"], ["632.8"], ["1.3982", "0.0003"]], [["321.418"], ["0.2"], ["100"], ["632.8"], ["1.398", "0.0003"]], [["321.473"], ["0.193"], ["100"], ["632.8"], ["1.3977", "0.0003"]], [["321.515"], ["0.189"], ["100"], ["632.8"], ["1.3975", "0.0003"]], [["321.552"], ["0.182"], ["100"], ["632.8"], ["1.3972", "0.0004"]], [["321.577"], ["0.178"], ["100"], ["632.8"], ["1.397", "0.0003"]], [["321.595"], ["0.171"], ["100"], ["632.8"], ["1.3967", "0.0008"]], [["321.608"], ["0.165"], ["100"], ["632.8"], ["1.3964", "0.0003"]], [["321.615"], ["0.161"], ["100"], ["632.8"], ["1.3962", "0.0003"]], [["321.618"], ["0.159"], ["100"], ["632.8"], ["1.3961", "0.0012"]]], "solvent": null, "expmeth": "direct measurement of refraction angle"}