{"title": "Refraction, surface tension, and speed of sound: Refractive index (Na D-line)", "components": [{"name": "water", "formula": "H<SUB>2</SUB>O", "mw": "18.02", "idout": "AADYJk", "sample": [["Purification:", "estimated by the compiler"], ["Purity:", "99.9 mass %(unspecified)"]]}, {"mw": "101.10", "idout": "AATXuS", "formula": "KNO<SUB>3</SUB>", "name": "potassium nitrate", "sample": [["Source:", "commercial source"], ["Purification:", "stated by supplier"], ["Purity:", "99 mass %"], ["Purity analysis:", "dried by vacuum heating"]]}, {"sample": [["Source:", "commercial source"], ["Purification:", "stated by supplier"], ["Purity:", "99 mol %"], ["Purity analysis:", "dried by vacuum heating"]], "name": "1-hexyl-3-methyl-1H-imidazolium bromide", "formula": "C<SUB>10</SUB>H<SUB>19</SUB>BrN<SUB>2</SUB>", "idout": "AAvbcc", "mw": "247.18"}], "dhead": [["Weight fraction of 1-hexyl-3-methyl-1H-imidazolium bromide", "Liquid"], ["Weight fraction of potassium nitrate", "Liquid"], ["Pressure, kPa", null], ["Temperature, K", null], ["Refractive index (Na D-line)", "Liquid"]], "footer": "", "data": [[["0"], ["0.2792"], ["101"], ["298.15"], ["1.35915", "0.00032"]], [["0.0649"], ["0.2149"], ["101"], ["298.15"], ["1.36779", "0.00032"]], [["0.1379"], ["0.1664"], ["101"], ["298.15"], ["1.37677", "0.00032"]], [["0.2173"], ["0.1243"], ["101"], ["298.15"], ["1.3871", "0.00033"]], [["0.2987"], ["0.0973"], ["101"], ["298.15"], ["1.39809", "0.00033"]], [["0.3794"], ["0.0826"], ["101"], ["298.15"], ["1.40984", "0.00033"]], [["0.4625"], ["0.0682"], ["101"], ["298.15"], ["1.42322", "0.00034"]], [["0.5484"], ["0.0529"], ["101"], ["298.15"], ["1.43739", "0.00034"]], [["0.6362"], ["0.0386"], ["101"], ["298.15"], ["1.45314", "0.00035"]], [["0.7243"], ["0.0272"], ["101"], ["298.15"], ["1.47047", "0.00035"]], [["0.8149"], ["0.0149"], ["101"], ["298.15"], ["1.48749", "0.00036"]]], "solvent": null, "expmeth": "Standard Abbe refractometry", "constr": [], "ref": {"title": "Phase behavior of [Cnmim]Cl/Br (n=2, 4, 6, 8) +MNO3(M=Na, K, Rb, Cs) + H2O systems at 298.15 K", "full": "Li, X.; Li, S.; Zhai, Q.; Jiang, Y.; Hu, M. (2016) J. Mol. Liq. 215, 237-243."}, "phases": ["Liquid"]}