{"ref": {"title": "Physical and electrochemical properties of lithium-doped 1-butyl-3-methylimidazolium salts", "full": "Kim, K.-S. (2009) Korean J. Chem. Eng. 26(3), 770-774."}, "constr": [], "phases": ["Liquid"], "components": [{"mw": "226.03", "idout": "AArYBF", "name": "1-butyl-3-methylimidazolium tetrafluoroborate", "formula": "C<SUB>8</SUB>H<SUB>15</SUB>BF<SUB>4</SUB>N<SUB>2</SUB>", "sample": [["Source:", "synthesized by the authors"], ["Purification:", "Karl Fischer titration;estimated by the compiler;ion-selective electrode"], ["Purity:", "0.002 water mass %;99 mass %;0.0013 halide impurity mass %(crystallization from melt;dried by vacuum heating)"]]}], "title": "Refraction, surface tension, and speed of sound: Refractive index (Na D-line)", "dhead": [["Temperature, K", null], ["Pressure, kPa", null], ["Refractive index (Na D-line)", "Liquid"]], "solvent": null, "data": [[["298.15"], ["101.325"], ["1.423", "0.003"]], [["303.15"], ["101.325"], ["1.421", "0.003"]], [["308.15"], ["101.325"], ["1.42", "0.003"]], [["313.15"], ["101.325"], ["1.419", "0.003"]], [["318.15"], ["101.325"], ["1.419", "0.003"]], [["323.15"], ["101.325"], ["1.417", "0.003"]]], "footer": "", "expmeth": "Standard Abbe refractometry"}