{"ref": {"full": "Calvar, N.; Gomez, E.; Gonzalez, B.; Dominguez, A. (2009) J. Chem. Eng. Data 54(8), 2229-2234.", "title": "Experimental Determination, Correlation, and Prediction of Physical Properties of the Ternary Mixtures Ethanol and 1-Propanol + Water + 1-Ethyl-3-methylpyridinium Ethylsulfate at 298.15 K"}, "constr": [], "phases": ["Liquid"], "title": "Refraction, surface tension, and speed of sound: Refractive index (Na D-line)", "components": [{"sample": [["Source:", "commercial source"], ["Purification:", "stated by supplier"], ["Purity:", "99.9 % (basis not specified)"], ["Purity analysis:", "de-gassed by evacuation;dried in a desiccator"]], "mw": "60.10", "idout": "AALcLI", "name": "propan-1-ol", "formula": "C<SUB>3</SUB>H<SUB>8</SUB>O"}, {"sample": [["Source:", "synthesized by the authors"], ["Purification:", "Karl Fischer titration"], ["Purity:", "0.07 water mass %(dried by vacuum heating)"]], "idout": "AAvdhf", "mw": "247.31", "name": "1-ethyl-3-methylpyridinium ethylsulfate", "formula": "C<SUB>10</SUB>H<SUB>17</SUB>NO<SUB>4</SUB>S"}], "dhead": [["Mole fraction of propan-1-ol", "Liquid"], ["Temperature, K", null], ["Pressure, kPa", null], ["Refractive index (Na D-line)", "Liquid"]], "footer": "", "data": [[["0"], ["298.15"], ["101.3"], ["1.50666", "0.0012"]], [["0.0863"], ["298.15"], ["101.3"], ["1.50223", "0.0011"]], [["0.1279"], ["298.15"], ["101.3"], ["1.5002", "0.0011"]], [["0.2201"], ["298.15"], ["101.3"], ["1.49524", "0.001"]], [["0.3243"], ["298.15"], ["101.3"], ["1.48866", "0.00096"]], [["0.4177"], ["298.15"], ["101.3"], ["1.48167", "0.0009"]], [["0.5126"], ["298.15"], ["101.3"], ["1.47321", "0.00084"]], [["0.6093"], ["298.15"], ["101.3"], ["1.4627", "0.00079"]], [["0.7176"], ["298.15"], ["101.3"], ["1.44818", "0.00074"]], [["0.824"], ["298.15"], ["101.3"], ["1.4297", "0.0007"]], [["0.8834"], ["298.15"], ["101.3"], ["1.41684", "0.00069"]], [["0.9658"], ["298.15"], ["101.3"], ["1.39459", "0.00068"]], [["1"], ["298.15"], ["101.3"], ["1.3837", "0.00068"]]], "solvent": null, "expmeth": "Standard Abbe refractometry"}