{"constr": [], "ref": {"title": "Liquid Liquid Equilibrium in N-Methyl-2-hydroxyethylammonium Acetate, Butanoate, or Hexanoate Ionic Liquids + Dibenzothiophene + n-Dodecane Systems at 298.2 K and Atmospheric Pressure", "full": "de Oliveira, L.; Alvarez, V.; Aznar, M. (2012) J. Chem. Eng. Data 57(3), 744-750."}, "phases": ["Liquid mixture 1", "Liquid mixture 2"], "components": [{"formula": "C<SUB>12</SUB>H<SUB>26</SUB>", "name": "dodecane", "idout": "AAgnKZ", "mw": "170.34", "sample": [["Source:", "commercial source"], ["Purification:", "stated by supplier"], ["Purity:", "99.6 mass %"]]}, {"name": "dibenzothiophene", "formula": "C<SUB>12</SUB>H<SUB>8</SUB>S", "idout": "AAjWNo", "mw": "184.26", "sample": [["Source:", "commercial source"], ["Purification:", "stated by supplier"], ["Purity:", "98 mass %"]]}, {"sample": [["Source:", "synthesized by the authors"], ["Purification:", "Karl Fischer titration"], ["Purity:", "0.05 water mass %"]], "formula": "C<SUB>7</SUB>H<SUB>17</SUB>NO<SUB>3</SUB>", "name": "N-methyl-2-hydroxyethylammonium butanoate", "mw": "163.22", "idout": "AAfUVe"}], "title": "Refraction, surface tension, and speed of sound: Refractive index (Na D-line)", "dhead": [["Mole fraction of N-methyl-2-hydroxyethylammonium butanoate", "Liquid mixture 1"], ["Temperature, K", null], ["Pressure, kPa", null], ["Refractive index (Na D-line)", "Liquid mixture 1"]], "data": [[["0.9774"], ["298.2"], ["95"], ["1.4601", "0.001"]], [["0.9803"], ["298.2"], ["95"], ["1.4591", "0.001"]], [["0.9848"], ["298.2"], ["95"], ["1.4579", "0.0009"]], [["0.99"], ["298.2"], ["95"], ["1.4569", "0.0009"]], [["0.9936"], ["298.2"], ["95"], ["1.456", "0.001"]]], "solvent": null, "footer": "", "expmeth": "Standard Abbe refractometry"}