{"title": "Refraction, surface tension, and speed of sound: Refractive index (Na D-line)", "components": [{"name": "1-[(1R,2S,5R)-(-)-menthoxymethyl]-3-methylimidazolium bis(trifluoromethylsulfonyl)imide", "formula": "C<SUB>17</SUB>H<SUB>27</SUB>F<SUB>6</SUB>N<SUB>3</SUB>O<SUB>5</SUB>S<SUB>2</SUB>", "mw": "531.53", "idout": "AByLZs", "sample": [["Source:", "synthesized by the authors"], ["Purification:", "NMR (proton);Karl Fischer titration"], ["Purity:", "99.96 mass %;0.036 water mass %(dried by vacuum heating;solvent extraction)"]]}], "dhead": [["Temperature, K", null], ["Pressure, kPa", null], ["Refractive index (Na D-line)", "Liquid"]], "footer": "", "data": [[["298.15"], ["101.325"], ["1.4483", "0.0007"]]], "solvent": null, "expmeth": "Standard Abbe refractometry", "ref": {"title": "Influence of the alkyl side chain length on the thermophysical properties of chiral ionic liquids with a (1R,2S,5R)-(-)-menthol substituent and data analysis by means of mathematical gnostics", "full": "Andresova, Adela; Bendova, Magdalena; Schwarz, Jaroslav; Wagner, Zdenek; Feder-Kubis, Joanna (2017) J. Mol. Liq. 242, 336-348."}, "constr": [], "phases": ["Liquid"]}