{"expmeth": "Standard Abbe refractometry", "data": [[["298.15"], ["101.325"], ["1.42903", "0.00068"]]], "solvent": null, "footer": "", "dhead": [["Temperature, K", null], ["Pressure, kPa", null], ["Refractive index (Na D-line)", "Liquid"]], "components": [{"mw": "494.55", "idout": "ABrFsY", "formula": "C<SUB>16</SUB>H<SUB>32</SUB>F<SUB>6</SUB>N<SUB>2</SUB>O<SUB>4</SUB>S<SUB>2</SUB>", "name": "triethyloctylammonium bis[(trifluoromethyl)sulfonyl]imide", "sample": [["Source:", "synthesized by others"], ["Purification:", "not known;Karl Fischer titration"], ["Purity:", "99.5 mass %;0.00228 water mass %(dried by vacuum heating)"]]}], "title": "Refraction, surface tension, and speed of sound: Refractive index (Na D-line)", "phases": ["Liquid"], "ref": {"title": "Excess molar volumes and excess molar enthalpies in binary systems N-alkyl-triethylammonium bis(trifluoromethylsulfonyl)imide +methanol", "full": "Machanova, K.; Troncoso, J.; Jacquemin, J.; Bendova, M. (2014) Fluid Phase Equilib. 363, 156-166."}, "constr": []}