{"title": "Refraction, surface tension, and speed of sound: Refractive index (Na D-line)", "components": [{"formula": "C<SUB>16</SUB>H<SUB>15</SUB>F<SUB>18</SUB>N<SUB>3</SUB>O<SUB>4</SUB>S<SUB>2</SUB>", "name": "1-butyl-3-methyl-1H-imidazolium bis(perfluorobutylsulfonyl)amide", "mw": "719.40", "idout": "ACiSyv", "sample": [["Source:", "commercial source"], ["Initial purification:", "stated by supplier"], ["Initial purity:", "98 mass %"], ["Final purification:", "Karl Fischer titration"], ["Final purity:", "0.01 water mass %(dried by vacuum heating)"]]}], "dhead": [["Temperature, K", null], ["Pressure, kPa", null], ["Refractive index (Na D-line)", "Liquid"]], "footer": "", "data": [[["283.15"], ["101.325"], ["1.39249", "0.00064"]], [["288.15"], ["101.325"], ["1.39104", "0.00064"]], [["293.15"], ["101.325"], ["1.38955", "0.00064"]], [["298.15"], ["101.325"], ["1.38807", "0.00064"]], [["303.15"], ["101.325"], ["1.38662", "0.00064"]], [["308.15"], ["101.325"], ["1.38516", "0.00064"]], [["313.15"], ["101.325"], ["1.38367", "0.00064"]], [["318.15"], ["101.325"], ["1.38222", "0.00064"]], [["323.15"], ["101.325"], ["1.38078", "0.00064"]], [["328.15"], ["101.325"], ["1.3793", "0.00064"]], [["333.15"], ["101.325"], ["1.37783", "0.00064"]], [["338.15"], ["101.325"], ["1.37638", "0.00063"]], [["343.15"], ["101.325"], ["1.37496", "0.00063"]], [["348.15"], ["101.325"], ["1.3735", "0.00064"]], [["353.15"], ["101.325"], ["1.37206", "0.00063"]]], "solvent": null, "expmeth": "Standard Abbe refractometry", "ref": {"full": "Seki, S.; Tsuzuki, S.; Hayamizu, K.; Umebayashi, Y.; Serizawa, N.; Takei, K.; Miyashiro, H. (2012) J. Chem. Eng. Data 57(8), 2211-2216.", "title": "Comprehensive Refractive Index Property for Room-Temperature Ionic Liquids"}, "constr": [], "phases": ["Liquid"]}