{"ref": {"full": "Warmiska, D.; Cichowska-Kopczyska, I. (2020) J. Mol. Liq. 304, 112754.", "title": "Thermodynamic study of binary mixtures of toluene with ionic liquids, 1-butyl-1-methylpyrrolidinium bis(trifluoromethylsulfonyl)imide, 1-hexyl-1-methylpyrrolidinium bis(trifluoromethylsulfonyl)imide and 1-butylpyridinium bis(trifluoromethylsulfonyl)imide"}, "constr": [], "phases": ["Liquid"], "dhead": [["Temperature, K", null], ["Pressure, kPa", null], ["Refractive index (Na D-line)", "Liquid"]], "components": [{"name": "1-butyl-1-methylpyrrolidinium bis[(trifluoromethyl)sulfonyl]imide", "formula": "C<SUB>11</SUB>H<SUB>20</SUB>F<SUB>6</SUB>N<SUB>2</SUB>O<SUB>4</SUB>S<SUB>2</SUB>", "mw": "422.40", "idout": "ABdMNo", "sample": [["Source:", "commercial source"], ["Purification:", "stated by supplier"], ["Purity:", "99 mass %"], ["Purity analysis:", "dried by vacuum heating"]]}], "title": "Refraction, surface tension, and speed of sound: Refractive index (Na D-line)", "expmeth": "Standard Abbe refractometry", "data": [[["293.15"], ["101.325"], ["1.4236", "0.0004"]], [["298.15"], ["101.325"], ["1.4223", "0.0004"]], [["303.15"], ["101.325"], ["1.4211", "0.0004"]], [["308.15"], ["101.325"], ["1.4198", "0.0004"]], [["313.15"], ["101.325"], ["1.4182", "0.0004"]]], "solvent": null, "footer": ""}