{"constr": [], "ref": {"title": "Phenyl/alkyl-substituted-3,5-dimethylpyrazolium ionic liquids", "full": "Ozdemir, M. C.; Ozgun, B. (2014) J. Mol. Liq. 200, 129-135."}, "phases": ["Liquid"], "title": "Refraction, surface tension, and speed of sound: Refractive index", "components": [{"mw": "366.52", "idout": "ABSZVs", "formula": "C<SUB>19</SUB>H<SUB>30</SUB>N<SUB>2</SUB>O<SUB>3</SUB>S", "name": "1-phenyl-3,5-dimethyl-2-heptylpyrazolium methanesulfonate", "sample": [["Source:", "synthesized by the authors"], ["Purification:", "Karl Fischer titration"], ["Purity:", "0.32 water mass %"]]}], "dhead": [["Temperature, K", null], ["Pressure, kPa", null], ["Wavelength, A", "Liquid"], ["Refractive index", "Liquid"]], "footer": "", "data": [[["298"], ["101.325"], ["633"], ["1.5104", "0.0011"]], [["308"], ["101.325"], ["633"], ["1.5079", "0.0011"]], [["313"], ["101.325"], ["633"], ["1.5065", "0.0011"]], [["333"], ["101.325"], ["633"], ["1.5008", "0.0011"]]], "solvent": null, "expmeth": "Standard Abbe refractometry"}