{"components": [{"sample": [["Source:", "synthesized by the authors"], ["Purification:", "Karl Fischer titration"], ["Purity:", "0.03 water mass %(dried by vacuum heating)"]], "mw": "208.23", "idout": "AAoCnc", "formula": "C<SUB>6</SUB>H<SUB>12</SUB>N<SUB>2</SUB>O<SUB>4</SUB>S", "name": "1,3-dimethylimidazolium methylsulfate"}], "title": "Refraction, surface tension, and speed of sound: Refractive index (Na D-line)", "dhead": [["Temperature, K", null], ["Pressure, kPa", null], ["Refractive index (Na D-line)", "Liquid"]], "data": [[["298.15"], ["101.325"], ["1.48296", "0.0012"]]], "solvent": null, "footer": "", "expmeth": "Standard Abbe refractometry", "constr": [], "ref": {"full": "Gomez, E.; Gonzalez, B.; Calvar, N.; Dominguez, A. (2008) J. Chem. Thermodyn. 40(8), 1208-1216.", "title": "Excess molar properties of ternary system (ethanol + water + 1,3-dimethylimidazolium methyl sulfate) and its binary mixtures at several temperatures"}, "phases": ["Liquid"]}