{"ref": {"title": "Phase behavior of [Cnmim]Cl/Br (n=2, 4, 6, 8) +MNO3(M=Na, K, Rb, Cs) + H2O systems at 298.15 K", "full": "Li, X.; Li, S.; Zhai, Q.; Jiang, Y.; Hu, M. (2016) J. Mol. Liq. 215, 237-243."}, "constr": [], "phases": ["Liquid"], "components": [{"formula": "H<SUB>2</SUB>O", "name": "water", "idout": "AADYJk", "mw": "18.02", "sample": [["Purification:", "estimated by the compiler"], ["Purity:", "99.9 mass %(unspecified)"]]}, {"formula": "KNO<SUB>3</SUB>", "name": "potassium nitrate", "idout": "AATXuS", "mw": "101.10", "sample": [["Source:", "commercial source"], ["Purification:", "stated by supplier"], ["Purity:", "99 mass %"], ["Purity analysis:", "dried by vacuum heating"]]}, {"sample": [["Source:", "commercial source"], ["Purification:", "stated by supplier"], ["Purity:", "99 mol %"], ["Purity analysis:", "dried by vacuum heating"]], "name": "1-ethyl-3-methylimidazolium chloride", "formula": "C<SUB>6</SUB>H<SUB>11</SUB>ClN<SUB>2</SUB>", "idout": "AAcKZa", "mw": "146.62"}], "title": "Refraction, surface tension, and speed of sound: Refractive index (Na D-line)", "dhead": [["Weight fraction of 1-ethyl-3-methylimidazolium chloride", "Liquid"], ["Weight fraction of potassium nitrate", "Liquid"], ["Pressure, kPa", null], ["Temperature, K", null], ["Refractive index (Na D-line)", "Liquid"]], "data": [[["0"], ["0.2792"], ["101"], ["298.15"], ["1.35915", "0.00032"]], [["0.0665"], ["0.1828"], ["101"], ["298.15"], ["1.36676", "0.00032"]], [["0.1412"], ["0.1319"], ["101"], ["298.15"], ["1.37546", "0.00032"]], [["0.2178"], ["0.1077"], ["101"], ["298.15"], ["1.38569", "0.00033"]], [["0.2982"], ["0.0836"], ["101"], ["298.15"], ["1.39661", "0.00033"]], [["0.3801"], ["0.0654"], ["101"], ["298.15"], ["1.41036", "0.00033"]], [["0.4633"], ["0.0508"], ["101"], ["298.15"], ["1.42368", "0.00034"]], [["0.5481"], ["0.0375"], ["101"], ["298.15"], ["1.43691", "0.00034"]], [["0.6326"], ["0.028"], ["101"], ["298.15"], ["1.45206", "0.00034"]], [["0.7177"], ["0.0197"], ["101"], ["298.15"], ["1.47612", "0.00035"]], [["0.8026"], ["0.0134"], ["101"], ["298.15"], ["1.49716", "0.00036"]]], "solvent": null, "footer": "", "expmeth": "Standard Abbe refractometry"}