{"title": "Refraction, surface tension, and speed of sound: Refractive index (Na D-line)", "components": [{"sample": [["Source:", "synthesized by the authors"], ["Purification:", "estimated by the compiler;Karl Fischer titration;ion chromatography"], ["Purity:", "98 % (basis not specified);0.0179 water mass %;0.0062 halide impurity mass %(dried in a desiccator;dried by vacuum heating)"]], "mw": "383.43", "idout": "ABVmNY", "name": "3-(2-cyanoethyl)-1-octyl-1H-imidazol-3-ium trifluoromethanesulfonate", "formula": "C<SUB>15</SUB>H<SUB>24</SUB>F<SUB>3</SUB>N<SUB>3</SUB>O<SUB>3</SUB>S"}], "dhead": [["Temperature, K", null], ["Pressure, kPa", null], ["Refractive index (Na D-line)", "Liquid"]], "footer": "", "data": [[["298.15"], ["101.325"], ["1.52679", "0.0006"]], [["303.15"], ["101.325"], ["1.52584", "0.0006"]], [["308.15"], ["101.325"], ["1.5247", "0.00061"]], [["313.15"], ["101.325"], ["1.52356", "0.00061"]], [["318.15"], ["101.325"], ["1.52248", "0.00061"]], [["323.15"], ["101.325"], ["1.52119", "0.00062"]], [["328.15"], ["101.325"], ["1.51991", "0.00062"]], [["333.15"], ["101.325"], ["1.51873", "0.00061"]]], "solvent": null, "expmeth": "Standard Abbe refractometry", "constr": [], "ref": {"full": "Ziyada, A. K.; Wilfred, C. D. (2014) J. Chem. Eng. Data 59(5), 1385-1390.", "title": "Effect of Temperature and Anion on Densities, Viscosities, and Refractive Indices of 1-Octyl-3-propanenitrile Imidazolium-Based Ionic Liquids"}, "phases": ["Liquid"]}