{"constr": [], "ref": {"title": "Density, Surface Tension, and Refractive Index of Ionic Liquids Homologue of 1-Alkyl-3-methylimidazolium Tetrafluoroborate [Cnmim][BF4] (n = 2,3,4,5,6)", "full": "Xu, W.-G.; Li, L.; Ma, X.-X.; Wei, J.; Duan, W.-B.; Guan, W.; Yang, J. -Z. (2012) J. Chem. Eng. Data 57(8), 2177-2184."}, "phases": ["Liquid"], "dhead": [["Temperature, K", null], ["Pressure, kPa", null], ["Refractive index (Na D-line)", "Liquid"]], "components": [{"name": "1-hexyl-3-methylimidazolium tetrafluoroborate", "formula": "C<SUB>10</SUB>H<SUB>19</SUB>BF<SUB>4</SUB>N<SUB>2</SUB>", "idout": "AAwscj", "mw": "254.08", "sample": [["Source:", "commercial source"], ["Initial purification:", "stated by supplier"], ["Initial purity:", "99 mass %"], ["Final purification:", "ion-selective electrode;Karl Fischer titration"], ["Final purity:", "0.1 halide impurity mass %;0.2 water mass %"]]}], "title": "Refraction, surface tension, and speed of sound: Refractive index (Na D-line)", "expmeth": "Standard Abbe refractometry", "data": [[["298.15"], ["101.325"], ["1.427", "0.0005"]], [["303.15"], ["101.325"], ["1.426", "0.0005"]], [["308.15"], ["101.325"], ["1.4249", "0.0005"]], [["313.15"], ["101.325"], ["1.4237", "0.0005"]], [["318.15"], ["101.325"], ["1.4226", "0.0005"]], [["323.15"], ["101.325"], ["1.4215", "0.0005"]], [["328.15"], ["101.325"], ["1.4204", "0.0005"]], [["333.15"], ["101.325"], ["1.4191", "0.0005"]], [["338.15"], ["101.325"], ["1.4179", "0.0005"]]], "solvent": null, "footer": ""}