{"components": [{"sample": [["Source:", "synthesized by the authors"], ["Purification:", "Karl Fischer titration"], ["Purity:", "0.32 water mass %"]], "mw": "352.49", "idout": "ABPorc", "name": "1-phenyl-3,5-dimethyl-2-hexylpyrazolium methanesulfonate", "formula": "C<SUB>18</SUB>H<SUB>28</SUB>N<SUB>2</SUB>O<SUB>3</SUB>S"}], "title": "Refraction, surface tension, and speed of sound: Refractive index", "dhead": [["Temperature, K", null], ["Pressure, kPa", null], ["Wavelength, A", "Liquid"], ["Refractive index", "Liquid"]], "data": [[["298"], ["101.325"], ["633"], ["1.5119", "0.0011"]], [["308"], ["101.325"], ["633"], ["1.5092", "0.0011"]], [["313"], ["101.325"], ["633"], ["1.5075", "0.0011"]], [["333"], ["101.325"], ["633"], ["1.5011", "0.0011"]]], "solvent": null, "footer": "", "expmeth": "Standard Abbe refractometry", "ref": {"title": "Phenyl/alkyl-substituted-3,5-dimethylpyrazolium ionic liquids", "full": "Ozdemir, M. C.; Ozgun, B. (2014) J. Mol. Liq. 200, 129-135."}, "constr": [], "phases": ["Liquid"]}