{"components": [{"sample": [["Source:", "commercial source"], ["Purification:", "stated by supplier"], ["Purity:", "99.6 mass %"], ["Purity analysis:", "dried in a desiccator"]], "idout": "AAihiT", "mw": "180.16", "formula": "C<SUB>6</SUB>H<SUB>12</SUB>O<SUB>6</SUB>", "name": "D-glucose"}, {"sample": [["Source:", "commercial source"], ["Purification:", "estimated by the compiler"], ["Purity:", "99.8 mass %(fractional distillation)"]], "name": "water", "formula": "H<SUB>2</SUB>O", "idout": "AADYJk", "mw": "18.02"}, {"sample": [["Source:", "synthesized by the authors"], ["Initial purification:", "NMR (proton)"], ["Initial purity:", "98 mass %"], ["Final purification:", "estimated by the compiler;Karl Fischer titration"], ["Final purity:", "99 mass %;0.05 water mass %(dried in a desiccator;dried by vacuum heating)"]], "idout": "AAsrIo", "mw": "233.15", "formula": "C<SUB>9</SUB>H<SUB>17</SUB>BrN<SUB>2</SUB>", "name": "1-pentyl-3-methylimidazolium bromide"}], "title": "Refraction, surface tension, and speed of sound: Refractive index (Na D-line)", "dhead": [["Solvent: MolaLity of 1-pentyl-3-methylimidazolium bromide, mol/kg", "Liquid"], ["MolaLity of D-glucose, mol/kg", "Liquid"], ["Pressure, kPa", null], ["Temperature, K", null], ["Refractive index (Na D-line)", "Liquid"]], "data": [[["0"], ["0.0104"], ["101"], ["298.15"], ["1.3328", "0.0004"]], [["0"], ["0.03"], ["101"], ["298.15"], ["1.3334", "0.0004"]], [["0"], ["0.05"], ["101"], ["298.15"], ["1.3339", "0.0004"]], [["0"], ["0.0705"], ["101"], ["298.15"], ["1.3343", "0.0004"]], [["0"], ["0.0899"], ["101"], ["298.15"], ["1.3349", "0.0004"]], [["0"], ["0.1102"], ["101"], ["298.15"], ["1.3352", "0.0004"]], [["0"], ["0.1301"], ["101"], ["298.15"], ["1.3357", "0.0004"]], [["0"], ["0.1496"], ["101"], ["298.15"], ["1.3361", "0.0004"]], [["0"], ["0.1691"], ["101"], ["298.15"], ["1.3366", "0.0004"]], [["0.0975"], ["0.0104"], ["101"], ["298.15"], ["1.3363", "0.0004"]], [["0.0975"], ["0.0302"], ["101"], ["298.15"], ["1.3367", "0.0004"]], [["0.0975"], ["0.0504"], ["101"], ["298.15"], ["1.337", "0.0004"]], [["0.0975"], ["0.0703"], ["101"], ["298.15"], ["1.3376", "0.0004"]], [["0.0975"], ["0.0903"], ["101"], ["298.15"], ["1.3382", "0.0004"]], [["0.0975"], ["0.1087"], ["101"], ["298.15"], ["1.3386", "0.0004"]], [["0.0975"], ["0.1297"], ["101"], ["298.15"], ["1.3391", "0.0004"]], [["0.0975"], ["0.1484"], ["101"], ["298.15"], ["1.3396", "0.0004"]], [["0.0975"], ["0.1655"], ["101"], ["298.15"], ["1.34", "0.0004"]], [["0.1981"], ["0.0102"], ["101"], ["298.15"], ["1.3363", "0.0004"]], [["0.1981"], ["0.0315"], ["101"], ["298.15"], ["1.3367", "0.0004"]], [["0.1981"], ["0.0501"], ["101"], ["298.15"], ["1.337", "0.0004"]], [["0.1981"], ["0.0704"], ["101"], ["298.15"], ["1.3376", "0.0004"]], [["0.1981"], ["0.0906"], ["101"], ["298.15"], ["1.3382", "0.0004"]], [["0.1981"], ["0.1109"], ["101"], ["298.15"], ["1.3386", "0.0004"]], [["0.1981"], ["0.1298"], ["101"], ["298.15"], ["1.3391", "0.0004"]], [["0.1981"], ["0.1486"], ["101"], ["298.15"], ["1.3396", "0.0004"]], [["0.1981"], ["0.1688"], ["101"], ["298.15"], ["1.34", "0.0004"]], [["0.2935"], ["0.0104"], ["101"], ["298.15"], ["1.3428", "0.0004"]], [["0.2935"], ["0.0293"], ["101"], ["298.15"], ["1.3432", "0.0004"]], [["0.2935"], ["0.0505"], ["101"], ["298.15"], ["1.3436", "0.0004"]], [["0.2935"], ["0.0697"], ["101"], ["298.15"], ["1.344", "0.0004"]], [["0.2935"], ["0.0891"], ["101"], ["298.15"], ["1.3445", "0.0004"]], [["0.2935"], ["0.1086"], ["101"], ["298.15"], ["1.3451", "0.0004"]], [["0.2935"], ["0.1284"], ["101"], ["298.15"], ["1.3455", "0.0004"]], [["0.2935"], ["0.1477"], ["101"], ["298.15"], ["1.3459", "0.0004"]], [["0.2935"], ["0.1675"], ["101"], ["298.15"], ["1.3465", "0.0004"]], [["0.3876"], ["0.0107"], ["101"], ["298.15"], ["1.3455", "0.0004"]], [["0.3876"], ["0.03"], ["101"], ["298.15"], ["1.3458", "0.0004"]], [["0.3876"], ["0.0496"], ["101"], ["298.15"], ["1.3465", "0.0004"]], [["0.3876"], ["0.0696"], ["101"], ["298.15"], ["1.347", "0.0004"]], [["0.3876"], ["0.0895"], ["101"], ["298.15"], ["1.3478", "0.0004"]], [["0.3876"], ["0.1095"], ["101"], ["298.15"], ["1.348", "0.0004"]], [["0.3876"], ["0.1259"], ["101"], ["298.15"], ["1.3486", "0.0004"]], [["0.3876"], ["0.1466"], ["101"], ["298.15"], ["1.349", "0.0004"]], [["0.3876"], ["0.1666"], ["101"], ["298.15"], ["1.3495", "0.0004"]]], "solvent": "water + 1-pentyl-3-methylimidazolium bromide", "footer": "", "expmeth": "Standard Abbe refractometry", "constr": [], "ref": {"full": "Shekaari, H.; Kazempour, A. (2012) J. Tianjin Univ. Sci. Technol. 43, 650-657.", "title": "Dehydration effect of ionic liquid, 1-pentyl-3-methylimidazolium bromide, on the aqueous D-glucose solutions: Thermodynamic study"}, "phases": ["Liquid"]}