{"components": [{"sample": [["Source:", "commercial source"], ["Initial purification:", "NMR (proton)"], ["Initial purity:", "98 mol %"], ["Final purification:", "Karl Fischer titration;ion chromatography"], ["Final purity:", "0.0017 water mass %;0.01 halide impurity mass %"]], "formula": "C<SUB>12</SUB>H<SUB>22</SUB>F<SUB>6</SUB>N<SUB>2</SUB>O<SUB>4</SUB>S<SUB>2</SUB>", "name": "1-isobutyl-1-methylpiperidinium bis((trifluoromethyl)sulfonyl)imide", "idout": "ABfwRJ", "mw": "436.43"}], "title": "Refraction, surface tension, and speed of sound: Refractive index (Na D-line)", "dhead": [["Temperature, K", null], ["Pressure, kPa", null], ["Refractive index (Na D-line)", "Liquid"]], "data": [[["288.15"], ["101.325"], ["1.43387", "0.00051"]], [["293.15"], ["101.325"], ["1.43243", "0.00051"]], [["298.15"], ["101.325"], ["1.43099", "0.00051"]], [["303.15"], ["101.325"], ["1.42955", "0.00051"]], [["308.15"], ["101.325"], ["1.42812", "0.00051"]], [["313.15"], ["101.325"], ["1.42668", "0.00051"]], [["318.15"], ["101.325"], ["1.42524", "0.00051"]], [["323.15"], ["101.325"], ["1.42381", "0.00051"]], [["328.15"], ["101.325"], ["1.42237", "0.00051"]], [["333.15"], ["101.325"], ["1.42093", "0.00051"]]], "solvent": null, "footer": "", "expmeth": "Standard Abbe refractometry", "constr": [], "ref": {"full": "Rodrigues, A. S. M. C.; Almeida, H. F. D.; Freire, M. G.; Lopes-da-Silva, J. A.; Coutinho, J. A. P.; Santos, L. M. N. B. F. (2016) Fluid Phase Equilib. 423, 190-202.", "title": "The effect of n vs. iso Isomerization on the thermophysical properties of aromatic and non-aromatic ionic liquids"}, "phases": ["Liquid"]}