{"constr": [], "ref": {"title": "Volumetric, acoustic, and refractometric properties of (thiophene + hexane/cyclohexane) solutions in the presence of some imidazolium based ionic liquids at T = 298.15 K", "full": "Shekaari, H.; Zafarani-Moattar, M. T.; Behrooz, N. J. (2015) J. Chem. Thermodyn. 86, 188-195."}, "phases": ["Liquid"], "title": "Refraction, surface tension, and speed of sound: Refractive index (Na D-line)", "components": [{"idout": "AAQJlb", "mw": "84.16", "name": "cyclohexane", "formula": "C<SUB>6</SUB>H<SUB>12</SUB>", "sample": [["Source:", "commercial source"], ["Purification:", "stated by supplier"], ["Purity:", "99 mass %"], ["Purity analysis:", "none used"]]}, {"formula": "C<SUB>10</SUB>H<SUB>19</SUB>BrN<SUB>2</SUB>", "name": "1-hexyl-3-methyl-1H-imidazolium bromide", "mw": "247.18", "idout": "AAvbcc", "sample": [["Source:", "synthesized by the authors"], ["Purification:", "estimated by the compiler;Karl Fischer titration"], ["Purity:", "99 mass %;0.1 water mass %(dried by vacuum heating;solvent extraction)"]]}], "dhead": [["Temperature, K", null], ["Pressure, kPa", null], ["MolaLity of 1-hexyl-3-methyl-1H-imidazolium bromide, mol/kg", "Liquid"], ["Refractive index (Na D-line)", "Liquid"]], "footer": "", "data": [[["298.15"], ["101.33"], ["0.0999"], ["1.4236", "0.0005"]]], "solvent": "cyclohexane", "expmeth": "Standard Abbe refractometry"}