{"phases": ["Liquid"], "constr": [], "ref": {"title": "Physicochemical Properties of Nitrile-Functionalized Ionic Liquids", "full": "Zhang, Q.; Li, Z.; Zhang, J.; Zhang, S.; Zhu, L.; Yang, J.; Zhang, X.; Deng, Y. (2007) J. Phys. Chem. B 111, 2864-2872."}, "expmeth": "Standard Abbe refractometry", "data": [[["283.15"], ["101.325"], ["1.4396", "0.0006"]], [["293.15"], ["101.325"], ["1.4367", "0.0006"]], [["303.13"], ["101.325"], ["1.4335", "0.0006"]], [["313.12"], ["101.325"], ["1.4307", "0.0006"]], [["323.13"], ["101.325"], ["1.4283", "0.0006"]]], "solvent": null, "footer": "", "dhead": [["Temperature, K", null], ["Pressure, kPa", null], ["Refractive index (Na D-line)", "Liquid"]], "components": [{"mw": "237.01", "idout": "AAteQp", "name": "1-butyronitrile-3-methylimidazolium tetrafluoroborate", "formula": "C<SUB>8</SUB>H<SUB>12</SUB>BF<SUB>4</SUB>N<SUB>3</SUB>", "sample": [["Source:", "synthesized by the authors"], ["Purification:", "estimated by the compiler"], ["Purity:", "98 mass %(chemical reagent treatment;dried by vacuum heating)"]]}], "title": "Refraction, surface tension, and speed of sound: Refractive index (Na D-line)"}