{"title": "Refraction, surface tension, and speed of sound: Refractive index (Na D-line)", "components": [{"sample": [["Source:", "commercial source"], ["Purification:", "stated by supplier"], ["Purity:", "95 mass %"]], "formula": "C<SUB>16</SUB>H<SUB>36</SUB>ClN", "name": "tetrabutylammonium chloride", "mw": "277.92", "idout": "ABBXWo"}, {"sample": [["Source:", "commercial source"], ["Purification:", "stated by supplier"], ["Purity:", "99 mass %"]], "formula": "C<SUB>9</SUB>H<SUB>6</SUB>O<SUB>4</SUB>", "name": "Ninhydrin", "idout": "AAiNkE", "mw": "178.14"}], "dhead": [["Temperature, K", null], ["Mole ratio to solvent: tetrabutylammonium chloride", "Liquid"], ["Pressure, kPa", null], ["Refractive index (Na D-line)", "Liquid"]], "footer": "", "data": [[["293.15"], ["0.75"], ["101.3"], ["1.54256", "0.00082"]], [["293.15"], ["1.5"], ["101.3"], ["1.52347", "0.0008"]], [["298.15"], ["0.75"], ["101.3"], ["1.54077", "0.00082"]], [["298.15"], ["1.5"], ["101.3"], ["1.52192", "0.0008"]], [["303.15"], ["0.75"], ["101.3"], ["1.53907", "0.00081"]], [["303.15"], ["1.5"], ["101.3"], ["1.52035", "0.0008"]], [["308.15"], ["0.75"], ["101.3"], ["1.53737", "0.00081"]], [["308.15"], ["1.5"], ["101.3"], ["1.51881", "0.0008"]], [["313.15"], ["0.75"], ["101.3"], ["1.53568", "0.00081"]], [["313.15"], ["1.5"], ["101.3"], ["1.51727", "0.0008"]], [["318.15"], ["0.75"], ["101.3"], ["1.53406", "0.0008"]], [["318.15"], ["1.5"], ["101.3"], ["1.51576", "0.00079"]], [["323.15"], ["0.75"], ["101.3"], ["1.53245", "0.0008"]], [["323.15"], ["1.5"], ["101.3"], ["1.51425", "0.00079"]], [["328.15"], ["0.75"], ["101.3"], ["1.53084", "0.0008"]], [["328.15"], ["1.5"], ["101.3"], ["1.51279", "0.00079"]], [["333.15"], ["0.75"], ["101.3"], ["1.52924", "0.0008"]], [["333.15"], ["1.5"], ["101.3"], ["1.51129", "0.00079"]]], "solvent": "Ninhydrin", "expmeth": "Standard Abbe refractometry", "constr": [], "ref": {"full": "Kianpour, Asu; Omar, Karzan A.; Sadeghi, Rahmat (2022) J. Chem. Eng. Data 67(6), 1421-1427.", "title": "Novel Deep Eutectic Solvents: Physical Properties and Their Application in Amino Acid Detection"}, "phases": ["Liquid"]}