{"title": "Refraction, surface tension, and speed of sound: Refractive index (Na D-line)", "components": [{"sample": [["Source:", "commercial source"], ["Purification:", "Karl Fischer titration"], ["Purity:", "98 mol %;0.02 water mass %(de-gassed by freezing and melting in vacuum;dried by vacuum heating)"]], "name": "1-butyl-3-methylimidazolium methyl sulfate", "formula": "C<SUB>9</SUB>H<SUB>18</SUB>N<SUB>2</SUB>O<SUB>4</SUB>S", "mw": "250.31", "idout": "AAwHNg"}], "dhead": [["Temperature, K", null], ["Pressure, kPa", null], ["Refractive index (Na D-line)", "Liquid"]], "footer": "", "data": [[["288.15"], ["101.325"], ["1.4809", "0.0005"]], [["293.15"], ["101.325"], ["1.4793", "0.0005"]], [["298.15"], ["101.325"], ["1.4782", "0.0005"]], [["303.15"], ["101.325"], ["1.4766", "0.0005"]], [["308.15"], ["101.325"], ["1.4751", "0.0005"]], [["313.15"], ["101.325"], ["1.474", "0.0005"]], [["318.15"], ["101.325"], ["1.4725", "0.0005"]], [["323.15"], ["101.325"], ["1.4713", "0.0005"]], [["328.15"], ["101.325"], ["1.4699", "0.0005"]], [["333.15"], ["101.325"], ["1.4685", "0.0005"]], [["338.15"], ["101.325"], ["1.4673", "0.0005"]], [["343.15"], ["101.325"], ["1.4659", "0.0005"]]], "solvent": null, "expmeth": "Standard Abbe refractometry", "ref": {"title": "Temperature Dependence of Physical Properties of Imidazolium Based Ionic Liquids: Internal Pressure and Molar Refraction", "full": "Singh, T.; Kumar, A. (2009) J. Solution Chem. 38, 1043-1053."}, "constr": [], "phases": ["Liquid"]}