{"ref": {"full": "Gomez, E.; Calvar, N.; Dominguez, I.; Dominguez, A. (2006) Phys. Chem. Liq. 44(4), 409-417.", "title": "Physical properties of the ternary mixture ethanol + water + 1-hexyl-3-methylimidazolium chloride at 298.15K"}, "constr": [], "phases": ["Liquid"], "title": "Refraction, surface tension, and speed of sound: Refractive index (Na D-line)", "components": [{"sample": [["Source:", "synthesized by the authors"]], "mw": "202.73", "idout": "AAmzKp", "formula": "C<SUB>10</SUB>H<SUB>19</SUB>ClN<SUB>2</SUB>", "name": "1-hexyl-3-methylimidazolium chloride"}], "dhead": [["Temperature, K", null], ["Pressure, kPa", null], ["Refractive index (Na D-line)", "Liquid"]], "footer": "", "data": [[["298.15"], ["101.325"], ["1.52182", "0.0075"]]], "solvent": null, "expmeth": "Standard Abbe refractometry"}