{"ref": {"title": "Effect of the relative humidity and isomeric structure on the physical properties of pyridinium based-ionic liquids", "full": "Gonzalez, E. J.; Gonzalez, B.; Macedo, E. A. (2015) J. Chem. Thermodyn. 86, 96-105."}, "constr": [], "phases": ["Liquid"], "title": "Refraction, surface tension, and speed of sound: Refractive index (Na D-line)", "components": [{"idout": "ABWiWC", "mw": "388.30", "formula": "C<SUB>9</SUB>H<SUB>10</SUB>F<SUB>6</SUB>N<SUB>2</SUB>O<SUB>4</SUB>S<SUB>2</SUB>", "name": "1-ethylpyridinium bis[(trifluoromethyl)sulfonyl]imide", "sample": [["Source:", "commercial source"], ["Initial purification:", "stated by supplier"], ["Initial purity:", "99 mass %"], ["Final purification:", "Karl Fischer titration;ion chromatography"], ["Final purity:", "0.0033 water mass %;0.01 halide impurity mass %(dried by vacuum heating)"]]}], "dhead": [["Temperature, K", null], ["Pressure, kPa", null], ["Refractive index (Na D-line)", "Liquid"]], "footer": "", "data": [[["293.15"], ["101.325"], ["1.44227", "0.00037"]], [["298.15"], ["101.325"], ["1.44091", "0.00037"]], [["303.15"], ["101.325"], ["1.43939", "0.00037"]], [["308.15"], ["101.325"], ["1.43788", "0.00037"]], [["313.15"], ["101.325"], ["1.43637", "0.00037"]], [["318.15"], ["101.325"], ["1.4349", "0.00037"]], [["323.15"], ["101.325"], ["1.43339", "0.00037"]], [["328.15"], ["101.325"], ["1.43193", "0.00037"]], [["333.15"], ["101.325"], ["1.43048", "0.00037"]], [["338.15"], ["101.325"], ["1.42905", "0.00037"]], [["343.15"], ["101.325"], ["1.42762", "0.00037"]]], "solvent": null, "expmeth": "Standard Abbe refractometry"}