{"components": [{"idout": "AAstlh", "mw": "233.32", "name": "1-hexyl-3-methylimidazolium dicyanamide", "formula": "C<SUB>12</SUB>H<SUB>19</SUB>N<SUB>5</SUB>", "sample": [["Source:", "commercial source"], ["Initial purification:", "stated by supplier"], ["Initial purity:", "97 mol %"], ["Final purification:", "not known"], ["Final purity:", "0.135 water mass %(dried by vacuum heating)"]]}], "title": "Refraction, surface tension, and speed of sound: Refractive index (Na D-line)", "dhead": [["Temperature, K", null], ["Pressure, kPa", null], ["Refractive index (Na D-line)", "Liquid"]], "data": [[["298.15"], ["101.325"], ["1.50419", "0.00068"]], [["313.15"], ["101"], ["1.49937", "0.00068"]]], "solvent": null, "footer": "", "expmeth": "Standard Abbe refractometry", "ref": {"full": "Corderi, S.; Gonzalez, B.; Calvar, N.; Gomez, E. (2013) Fluid Phase Equilib. 337, 11-17.", "title": "Ionic liquids as solvents to separate the azeotropic mixture hexane/ethanol"}, "constr": [], "phases": ["Liquid"]}