{"constr": [], "ref": {"title": "Physical Properties of the Ternary Mixture Ethanol+Water+1-Butyl-3-Methylimidazolium Chloride at 298.15K", "full": "Calvar, N.; Gonzalez, B.; Dominguez, A.; Tojo, J. (2006) J. Solution Chem. 35, 1217-1225."}, "phases": ["Liquid"], "components": [{"sample": [["Source:", "synthesized by the authors"], ["Purification:", "stated by supplier"], ["Purity:", "99.8 mass %"], ["Purity analysis:", "de-gassed by boiling or ultrasonically;molecular sieve treatment"]], "formula": "C<SUB>2</SUB>H<SUB>6</SUB>O", "name": "ethanol", "mw": "46.07", "idout": "AAIsrh"}, {"idout": "AADYJk", "mw": "18.02", "formula": "H<SUB>2</SUB>O", "name": "water", "sample": [["Source:", "synthesized by the authors"], ["Purification:", "estimated by the compiler"], ["Purity:", "99.9 mass %(fractional distillation)"]]}, {"name": "1-butyl-3-methylimidazolium chloride", "formula": "C<SUB>8</SUB>H<SUB>15</SUB>ClN<SUB>2</SUB>", "mw": "174.67", "idout": "AAherF", "sample": [["Source:", "synthesized by the authors"], ["Purification:", "estimated by the compiler"], ["Purity:", "98 mass %(dried by vacuum heating)"]]}], "title": "Refraction, surface tension, and speed of sound: Refractive index (Na D-line)", "dhead": [["Weight fraction of ethanol", "Liquid"], ["Weight fraction of water", "Liquid"], ["Pressure, kPa", null], ["Temperature, K", null], ["Refractive index (Na D-line)", "Liquid"]], "data": [[["0.0143"], ["0.094"], ["101"], ["298.15"], ["1.51094", "0.0021"]], [["0.0296"], ["0.0926"], ["101"], ["298.15"], ["1.50857", "0.0021"]], [["0.0312"], ["0.1298"], ["101"], ["298.15"], ["1.50097", "0.0021"]], [["0.0337"], ["0.1875"], ["101"], ["298.15"], ["1.48809", "0.0021"]], [["0.0369"], ["0.2812"], ["101"], ["298.15"], ["1.46745", "0.0021"]], [["0.0655"], ["0.0892"], ["101"], ["298.15"], ["1.50144", "0.0021"]], [["0.07"], ["0.1246"], ["101"], ["298.15"], ["1.49421", "0.0021"]], [["0.0726"], ["0.1799"], ["101"], ["298.15"], ["1.48178", "0.0021"]], [["0.0811"], ["0.2683"], ["101"], ["298.15"], ["1.46284", "0.0021"]], [["0.0932"], ["0.6347"], ["101"], ["298.15"], ["1.38693", "0.0021"]], [["0.0951"], ["0.8144"], ["101"], ["298.15"], ["1.35629", "0.0021"]], [["0.0971"], ["0.5417"], ["101"], ["298.15"], ["1.40286", "0.0021"]], [["0.0989"], ["0.3605"], ["101"], ["298.15"], ["1.43546", "0.0021"]], [["0.1009"], ["0.7193"], ["101"], ["298.15"], ["1.37205", "0.0021"]], [["0.1101"], ["0.0849"], ["101"], ["298.15"], ["1.4943", "0.0021"]], [["0.1128"], ["0.1189"], ["101"], ["298.15"], ["1.48603", "0.0021"]], [["0.1221"], ["0.1703"], ["101"], ["298.15"], ["1.47422", "0.0021"]], [["0.1351"], ["0.2526"], ["101"], ["298.15"], ["1.4562", "0.0021"]], [["0.1537"], ["0.0807"], ["101"], ["298.15"], ["1.48523", "0.0021"]], [["0.1673"], ["0.3331"], ["101"], ["298.15"], ["1.43027", "0.0021"]], [["0.1698"], ["0.1113"], ["101"], ["298.15"], ["1.47651", "0.0021"]], [["0.1759"], ["0.1599"], ["101"], ["298.15"], ["1.46674", "0.0021"]], [["0.1824"], ["0.5723"], ["101"], ["298.15"], ["1.38725", "0.0021"]], [["0.1848"], ["0.4891"], ["101"], ["298.15"], ["1.40081", "0.0021"]], [["0.186"], ["0.7326"], ["101"], ["298.15"], ["1.3608", "0.0021"]], [["0.1933"], ["0.2356"], ["101"], ["298.15"], ["1.44983", "0.0021"]], [["0.1966"], ["0.6427"], ["101"], ["298.15"], ["1.37448", "0.0021"]], [["0.2207"], ["0.0743"], ["101"], ["298.15"], ["1.4738", "0.0021"]], [["0.234"], ["0.1026"], ["101"], ["298.15"], ["1.46616", "0.0021"]], [["0.2454"], ["0.1464"], ["101"], ["298.15"], ["1.4576", "0.0021"]], [["0.2673"], ["0.2139"], ["101"], ["298.15"], ["1.4412", "0.0021"]], [["0.2918"], ["0.0676"], ["101"], ["298.15"], ["1.46186", "0.0021"]], [["0.2928"], ["0.6364"], ["101"], ["298.15"], ["1.36455", "0.0021"]], [["0.2933"], ["0.424"], ["101"], ["298.15"], ["1.39733", "0.0021"]], [["0.2942"], ["0.4941"], ["101"], ["298.15"], ["1.38626", "0.0021"]], [["0.2997"], ["0.5603"], ["101"], ["298.15"], ["1.37568", "0.0021"]], [["0.3118"], ["0.0922"], ["101"], ["298.15"], ["1.4561", "0.0021"]], [["0.3249"], ["0.131"], ["101"], ["298.15"], ["1.44594", "0.0021"]], [["0.353"], ["0.1889"], ["101"], ["298.15"], ["1.4311", "0.0021"]], [["0.3922"], ["0.547"], ["101"], ["298.15"], ["1.36668", "0.0021"]], [["0.3958"], ["0.4229"], ["101"], ["298.15"], ["1.38428", "0.0021"]], [["0.3975"], ["0.3615"], ["101"], ["298.15"], ["1.39315", "0.0021"]], [["0.398"], ["0.4816"], ["101"], ["298.15"], ["1.3757", "0.0021"]], [["0.3985"], ["0.0574"], ["101"], ["298.15"], ["1.44538", "0.0021"]], [["0.4001"], ["0.0804"], ["101"], ["298.15"], ["1.44105", "0.0021"]], [["0.4312"], ["0.1103"], ["101"], ["298.15"], ["1.43133", "0.0021"]], [["0.451"], ["0.1603"], ["101"], ["298.15"], ["1.42019", "0.0021"]], [["0.4883"], ["0.3582"], ["101"], ["298.15"], ["1.38189", "0.0021"]], [["0.4958"], ["0.4538"], ["101"], ["298.15"], ["1.36781", "0.0021"]], [["0.4963"], ["0.2015"], ["101"], ["298.15"], ["1.40304", "0.0021"]], [["0.4973"], ["0.3016"], ["101"], ["298.15"], ["1.38861", "0.0021"]], [["0.498"], ["0.4016"], ["101"], ["298.15"], ["1.37475", "0.0021"]], [["0.5351"], ["0.0444"], ["101"], ["298.15"], ["1.42481", "0.0021"]], [["0.5406"], ["0.0616"], ["101"], ["298.15"], ["1.42138", "0.0021"]], [["0.5518"], ["0.087"], ["101"], ["298.15"], ["1.41513", "0.0021"]], [["0.5871"], ["0.1206"], ["101"], ["298.15"], ["1.40516", "0.0021"]], [["0.5944"], ["0.2839"], ["101"], ["298.15"], ["1.37861", "0.0021"]], [["0.5946"], ["0.2432"], ["101"], ["298.15"], ["1.38398", "0.0021"]], [["0.5971"], ["0.3626"], ["101"], ["298.15"], ["1.36786", "0.0021"]], [["0.5987"], ["0.1605"], ["101"], ["298.15"], ["1.39463", "0.0021"]], [["0.6949"], ["0.122"], ["101"], ["298.15"], ["1.38665", "0.0021"]], [["0.695"], ["0.183"], ["101"], ["298.15"], ["1.37881", "0.0021"]], [["0.6961"], ["0.2735"], ["101"], ["298.15"], ["1.3673", "0.0021"]], [["0.728"], ["0.0365"], ["101"], ["298.15"], ["1.3953", "0.0021"]], [["0.7421"], ["0.05"], ["101"], ["298.15"], ["1.3917", "0.0021"]], [["0.7632"], ["0.0692"], ["101"], ["298.15"], ["1.38602", "0.0021"]], [["0.7718"], ["0.0217"], ["101"], ["298.15"], ["1.39115", "0.0021"]], [["0.7949"], ["0.123"], ["101"], ["298.15"], ["1.37328", "0.0021"]], [["0.8013"], ["0.159"], ["101"], ["298.15"], ["1.36826", "0.0021"]], [["0.8754"], ["0.0119"], ["101"], ["298.15"], ["1.37656", "0.0021"]], [["0.9003"], ["0.0598"], ["101"], ["298.15"], ["1.36688", "0.0021"]]], "solvent": null, "footer": "", "expmeth": "Standard Abbe refractometry"}