{"components": [{"sample": [["Source:", "synthesized by the authors"], ["Purification:", "Karl Fischer titration;NMR (proton)"], ["Purity:", "0.0050 water mass %;99 mass %(dried by vacuum heating)"]], "name": "1-methylpyridinium methylsulfate", "formula": "C<SUB>7</SUB>H<SUB>11</SUB>NO<SUB>4</SUB>S", "idout": "AAnYKa", "mw": "205.23"}], "title": "Refraction, surface tension, and speed of sound: Refractive index (Na D-line)", "dhead": [["Temperature, K", null], ["Pressure, kPa", null], ["Refractive index (Na D-line)", "Liquid"]], "data": [[["283.15"], ["101.325"], ["1.5164", "0.0005"]], [["293.15"], ["101.325"], ["1.5139", "0.0005"]], [["303.15"], ["101.325"], ["1.5113", "0.0005"]], [["313.15"], ["101.325"], ["1.5088", "0.0005"]], [["323.15"], ["101.325"], ["1.5063", "0.0005"]], [["333.15"], ["101.325"], ["1.5039", "0.0005"]], [["343.15"], ["101.325"], ["1.5013", "0.0005"]]], "solvent": null, "footer": "", "expmeth": "Standard Abbe refractometry", "ref": {"title": "Measurements of the density, refractive index, electrical conductivity, thermal conductivity and dynamic viscosity for tributylmethylphosphonium and methylsulfate based ionic liquids", "full": "Rodil, Eva; Arce Jr., Alberto; Arce, Alberto; Soto, Ana (2018) Thermochim. Acta 664, 81-90."}, "constr": [], "phases": ["Liquid"]}