{"ref": {"full": "Zhang, Q.; Li, Z.; Zhang, J.; Zhang, S.; Zhu, L.; Yang, J.; Zhang, X.; Deng, Y. (2007) J. Phys. Chem. B 111, 2864-2872.", "title": "Physicochemical Properties of Nitrile-Functionalized Ionic Liquids"}, "constr": [], "phases": ["Liquid"], "components": [{"sample": [["Source:", "synthesized by the authors"], ["Purification:", "estimated by the compiler"], ["Purity:", "98 mass %"]], "name": "1-butyl-3-methylimidazolium bis(trifluoromethylsulfonyl)imide", "formula": "C<SUB>10</SUB>H<SUB>15</SUB>F<SUB>6</SUB>N<SUB>3</SUB>O<SUB>4</SUB>S<SUB>2</SUB>", "idout": "ABchwx", "mw": "419.36"}], "title": "Refraction, surface tension, and speed of sound: Refractive index (Na D-line)", "dhead": [["Temperature, K", null], ["Pressure, kPa", null], ["Refractive index (Na D-line)", "Liquid"]], "data": [[["283.13"], ["101.325"], ["1.4315", "0.0007"]], [["293.15"], ["101.325"], ["1.4281", "0.0007"]], [["303.13"], ["101.325"], ["1.4249", "0.0007"]], [["313.13"], ["101.325"], ["1.4215", "0.0007"]], [["323.15"], ["101.325"], ["1.4183", "0.0007"]]], "solvent": null, "footer": "", "expmeth": "Standard Abbe refractometry"}