{"ref": {"title": "Thermal conductivity of ionic liquids under pressure", "full": "Yebra, Francisco; Troncoso, Jacobo; Romani, Luis (2020) Fluid Phase Equilib. 515, 112573."}, "constr": [], "phases": ["Liquid"], "components": [{"sample": [["Source:", "commercial source"], ["Purification:", "stated by supplier"], ["Purity:", "99 mass %"], ["Purity analysis:", "dried by vacuum heating"]], "mw": "422.40", "idout": "ABdMNo", "formula": "C<SUB>11</SUB>H<SUB>20</SUB>F<SUB>6</SUB>N<SUB>2</SUB>O<SUB>4</SUB>S<SUB>2</SUB>", "name": "1-butyl-1-methylpyrrolidinium bis[(trifluoromethyl)sulfonyl]imide"}], "title": "Refraction, surface tension, and speed of sound: Refractive index (Na D-line)", "dhead": [["Temperature, K", null], ["Pressure, kPa", null], ["Refractive index (Na D-line)", "Liquid"]], "data": [[["298.15"], ["101.325"], ["1.42293", "0.0004"]]], "solvent": null, "footer": "", "expmeth": "Standard Abbe refractometry"}