{"constr": [], "ref": {"title": "Aqueous-phase green synthesis of formate-based ionic liquids and their thermophysical properties", "full": "Chen, Z.; Li, Z.; Ma, X.; Xu, L.; Wang, Y.; Zhang, S. (2019) J. Mol. Liq. 279, 370-377."}, "phases": ["Liquid"], "components": [{"sample": [["Source:", "synthesized by the authors"], ["Purification:", "NMR (proton);Karl Fischer titration;ion-selective electrode"], ["Purity:", "96.8 mass %;0.0953 water mass %;1.7 halide impurity mass %(dried by vacuum heating;solvent extraction;salting out of solution)"]], "name": "3-butyl-1-methyl-1H-imidazolium formate", "formula": "C<SUB>9</SUB>H<SUB>16</SUB>N<SUB>2</SUB>O<SUB>2</SUB>", "mw": "184.24", "idout": "AAjWoe"}], "title": "Refraction, surface tension, and speed of sound: Refractive index (Na D-line)", "dhead": [["Pressure, kPa", null], ["Temperature, K", null], ["Refractive index (Na D-line)", "Liquid"]], "solvent": null, "data": [[["89.3"], ["283.15"], ["1.5019", "0.0008"]], [["89.3"], ["293.15"], ["1.499", "0.0008"]], [["89.3"], ["298.15"], ["1.4975", "0.0008"]], [["89.3"], ["303.15"], ["1.4959", "0.0008"]], [["89.3"], ["313.15"], ["1.493", "0.0008"]], [["89.3"], ["323.15"], ["1.4905", "0.0008"]], [["89.3"], ["333.15"], ["1.4872", "0.0008"]], [["89.3"], ["343.15"], ["1.4843", "0.0008"]], [["89.3"], ["353.15"], ["1.4814", "0.0008"]]], "footer": "", "expmeth": "Standard Abbe refractometry"}