{"dhead": [["Mole fraction of propan-1-ol", "Liquid"], ["Pressure, kPa", null], ["Temperature, K", null], ["Refractive index (Na D-line)", "Liquid"]], "components": [{"mw": "60.10", "idout": "AALcLI", "name": "propan-1-ol", "formula": "C<SUB>3</SUB>H<SUB>8</SUB>O", "sample": [["Source:", "commercial source"], ["Purity:", "99.9 mass %(de-gassed by boiling or ultrasonically)"]]}, {"sample": [["Source:", "commercial source"], ["Initial purification:", "stated by supplier"], ["Initial purity:", "99 mass %"], ["Final purification:", "ion-selective electrode;Karl Fischer titration"], ["Final purity:", "0.01 halide impurity mass %;0.007 water mass %(dried by vacuum heating)"]], "mw": "447.41", "idout": "ABiCtA", "formula": "C<SUB>12</SUB>H<SUB>19</SUB>F<SUB>6</SUB>N<SUB>3</SUB>O<SUB>4</SUB>S<SUB>2</SUB>", "name": "1-hexyl-3-methylimidazolium bis[(trifluoromethyl)sulfonyl]imide"}], "title": "Refraction, surface tension, and speed of sound: Refractive index (Na D-line)", "expmeth": "Standard Abbe refractometry", "data": [[["0"], ["101.3"], ["298.15"], ["1.43024", "0.00022"]], [["0.0406"], ["101.3"], ["298.15"], ["1.42974", "0.00022"]], [["0.1017"], ["101.3"], ["298.15"], ["1.42894", "0.00021"]], [["0.1756"], ["101.3"], ["298.15"], ["1.42794", "0.0002"]], [["0.2693"], ["101.3"], ["298.15"], ["1.4265", "0.00019"]], [["0.3963"], ["101.3"], ["298.15"], ["1.424", "0.00018"]], [["0.4944"], ["101.3"], ["298.15"], ["1.42156", "0.00018"]], [["0.608"], ["101.3"], ["298.15"], ["1.41794", "0.00019"]], [["0.7013"], ["101.3"], ["298.15"], ["1.41398", "0.00023"]], [["0.8"], ["101.3"], ["298.15"], ["1.40802", "0.00032"]], [["0.8986"], ["101.3"], ["298.15"], ["1.3992", "0.00041"]], [["0.9422"], ["101.3"], ["298.15"], ["1.39333", "0.00065"]], [["1"], ["101.3"], ["298.15"], ["1.38307", "8e-05"]]], "solvent": null, "footer": "", "constr": [], "ref": {"title": "Excess properties of binary mixtures containing 1-hexyl-3-methylimidazolium bis(trifluoromethylsulfonyl)imide ionic liquid and polar organic compounds", "full": "Gonzalez, E. J.; Dominguez, A.; Eugenia, M. (2012) J. Chem. Thermodyn. 47, 300-311."}, "phases": ["Liquid"]}