{"phases": ["Liquid"], "constr": [], "ref": {"full": "Chen, Y.; Zhao, D.; Bai, Y.; Duan, Y.; Liu, C.; Gu, J.; Wang, X.; Sun, X.; Li, Y.; Zhang, L. (2022) J. Mol. Liq. 348, 118031.", "title": "Tuning refractive index of deep eutectic solvents"}, "solvent": null, "data": [[["0.333"], ["298.15"], ["100"], ["1.466", "0.0005"]], [["0.333"], ["308.15"], ["100"], ["1.4641", "0.0005"]], [["0.333"], ["318.15"], ["100"], ["1.4629", "0.0005"]], [["0.333"], ["328.15"], ["100"], ["1.4602", "0.0005"]]], "footer": "", "expmeth": "Standard Abbe refractometry", "components": [{"sample": [["Source:", "commercial source"], ["Purification:", "stated by supplier"], ["Purity:", "99.9 % (basis not specified)"]], "formula": "C<SUB>8</SUB>H<SUB>20</SUB>ClN", "name": "tetraethylammonium chloride", "mw": "165.71", "idout": "AAftPF"}, {"sample": [["Source:", "commercial source"], ["Purification:", "stated by supplier"], ["Purity:", "99 % (basis not specified)"]], "name": "phytic acid", "formula": "C<SUB>6</SUB>H<SUB>18</SUB>O<SUB>24</SUB>P<SUB>6</SUB>", "mw": "660.03", "idout": "ACWwVX"}], "title": "Refraction, surface tension, and speed of sound: Refractive index (Na D-line)", "dhead": [["Mole fraction of tetraethylammonium chloride", "Liquid"], ["Temperature, K", null], ["Pressure, kPa", null], ["Refractive index (Na D-line)", "Liquid"]]}