{"components": [{"sample": [["Source:", "commercial source"], ["Initial purification:", "stated by supplier"], ["Initial purity:", "97 mass %"], ["Final purification:", "not known"], ["Final purity:", "0.9 water mass %(dried in a desiccator)"]], "name": "1-ethyl-3-methylimidazolium tetrafluoroborate", "formula": "C<SUB>6</SUB>H<SUB>11</SUB>BF<SUB>4</SUB>N<SUB>2</SUB>", "mw": "197.97", "idout": "AAmDom"}], "title": "Refraction, surface tension, and speed of sound: Refractive index (Na D-line)", "dhead": [["Temperature, K", null], ["Pressure, kPa", null], ["Refractive index (Na D-line)", "Liquid"]], "data": [[["293.2"], ["101.325"], ["1.4123", "0.0009"]], [["298.2"], ["101.325"], ["1.4109", "0.0009"]], [["299.2"], ["101.325"], ["1.4107", "0.0009"]], [["300.2"], ["101.325"], ["1.4105", "0.0009"]], [["301.2"], ["101.325"], ["1.4102", "0.0009"]], [["302.2"], ["101.325"], ["1.41", "0.0009"]], [["303.2"], ["101.325"], ["1.4098", "0.0009"]], [["304.2"], ["101.325"], ["1.4096", "0.0009"]], [["305.2"], ["101.325"], ["1.4093", "0.0009"]], [["306.2"], ["101.325"], ["1.4091", "0.0009"]], [["307.2"], ["101.325"], ["1.4089", "0.0009"]], [["308.2"], ["101.325"], ["1.4087", "0.0009"]]], "solvent": null, "footer": "", "expmeth": "Standard Abbe refractometry", "constr": [], "ref": {"title": "Density and refractive index measurements of 1-ethyl-3-methylimidazolium-based ionic liquids", "full": "Soriano, A. N.; Doma Jr., B. T.; Li, M.-H. (2010) J. Taiwan Inst. Chem. Eng. 41, 115-121."}, "phases": ["Liquid"]}