{"phases": ["Liquid"], "constr": [], "ref": {"full": "Das, K.; Datta, B.; Rajbanshi, B.; Roy, M. N. (2018) J. Phys. Chem. B 122(5), 1679-1694.", "title": "Evidences for Inclusion and Encapsulation of an Ionic liquid with .beta.-CD and 18-C-6 in Aqueous Environments by Physicochemical Investigation"}, "expmeth": "Standard Abbe refractometry", "solvent": "1,4,7,10,13,16-hexaoxacyclooctadecane + water", "data": [[["0.001"], ["0.01"], ["100"], ["298.15"], ["1.3331", "0.0005"]], [["0.001"], ["0.025"], ["100"], ["298.15"], ["1.3336", "0.0005"]], [["0.001"], ["0.04"], ["100"], ["298.15"], ["1.3339", "0.0005"]], [["0.001"], ["0.055"], ["100"], ["298.15"], ["1.3343", "0.0005"]], [["0.001"], ["0.07"], ["100"], ["298.15"], ["1.3346", "0.0005"]], [["0.001"], ["0.085"], ["100"], ["298.15"], ["1.3349", "0.0005"]], [["0.003"], ["0.01"], ["100"], ["298.15"], ["1.3334", "0.0005"]], [["0.003"], ["0.025"], ["100"], ["298.15"], ["1.3337", "0.0005"]], [["0.003"], ["0.04"], ["100"], ["298.15"], ["1.3341", "0.0005"]], [["0.003"], ["0.055"], ["100"], ["298.15"], ["1.3345", "0.0005"]], [["0.003"], ["0.07"], ["100"], ["298.15"], ["1.3349", "0.0005"]], [["0.003"], ["0.085"], ["100"], ["298.15"], ["1.3353", "0.0005"]], [["0.005"], ["0.01"], ["100"], ["298.15"], ["1.3326", "0.0005"]], [["0.005"], ["0.025"], ["100"], ["298.15"], ["1.333", "0.0005"]], [["0.005"], ["0.04"], ["100"], ["298.15"], ["1.3333", "0.0005"]], [["0.005"], ["0.055"], ["100"], ["298.15"], ["1.3335", "0.0005"]], [["0.005"], ["0.07"], ["100"], ["298.15"], ["1.3338", "0.0005"]], [["0.005"], ["0.085"], ["100"], ["298.15"], ["1.3341", "0.0005"]]], "footer": "", "dhead": [["Solvent: Weight fraction of 1,4,7,10,13,16-hexaoxacyclooctadecane", "Liquid"], ["MolaLity of 1-ethyl-1-methylpyrrolidinium bromide, mol/kg", "Liquid"], ["Pressure, kPa", null], ["Temperature, K", null], ["Refractive index (Na D-line)", "Liquid"]], "components": [{"name": "1,4,7,10,13,16-hexaoxacyclooctadecane", "formula": "C<SUB>12</SUB>H<SUB>24</SUB>O<SUB>6</SUB>", "idout": "AAyrZp", "mw": "264.32", "sample": [["Source:", "commercial source"], ["Purification:", "stated by supplier"], ["Purity:", "99 mass %"]]}, {"sample": [["Source:", "commercial source"], ["Purification:", "stated by supplier"], ["Purity:", "99 mass %"]], "mw": "194.12", "idout": "AAlRMn", "name": "1-ethyl-1-methylpyrrolidinium bromide", "formula": "C<SUB>7</SUB>H<SUB>16</SUB>BrN"}, {"sample": [["Source:", "commercial source"], ["Purification:", "estimated by the compiler"], ["Purity:", "99.5 mass %"]], "mw": "18.02", "idout": "AADYJk", "formula": "H<SUB>2</SUB>O", "name": "water"}], "title": "Refraction, surface tension, and speed of sound: Refractive index (Na D-line)"}