{"phases": ["Liquid"], "constr": [], "ref": {"title": "Thermal conductivity of ionic liquids under pressure", "full": "Yebra, Francisco; Troncoso, Jacobo; Romani, Luis (2020) Fluid Phase Equilib. 515, 112573."}, "expmeth": "Standard Abbe refractometry", "data": [[["298.15"], ["101.325"], ["1.4377", "0.0004"]]], "solvent": null, "footer": "", "dhead": [["Temperature, K", null], ["Pressure, kPa", null], ["Refractive index (Na D-line)", "Liquid"]], "components": [{"mw": "288.29", "idout": "ABDWVo", "formula": "C<SUB>9</SUB>H<SUB>15</SUB>F<SUB>3</SUB>N<SUB>2</SUB>O<SUB>3</SUB>S", "name": "1-butyl-3-methylimidazolium trifluoromethanesulfonate", "sample": [["Source:", "commercial source"], ["Purification:", "stated by supplier"], ["Purity:", "99 mass %"], ["Purity analysis:", "dried by vacuum heating"]]}], "title": "Refraction, surface tension, and speed of sound: Refractive index (Na D-line)"}