{"title": "Refraction, surface tension, and speed of sound: Refractive index (Na D-line)", "components": [{"formula": "C<SUB>15</SUB>H<SUB>22</SUB>F<SUB>6</SUB>N<SUB>2</SUB>O<SUB>4</SUB>S<SUB>2</SUB>", "name": "1-octylpyridinium bis((trifluoromethyl)sulfonyl)amide", "idout": "ABmsed", "mw": "472.46", "sample": [["Source:", "synthesized by the authors"], ["Purification:", "NMR (proton);NMR (proton);estimated by the compiler"], ["Purity:", "0.0146 water mass %;0.0086 halide impurity mass %;98 mass %"]]}], "dhead": [["Temperature, K", null], ["Pressure, kPa", null], ["Refractive index (Na D-line)", "Liquid"]], "footer": "", "data": [[["293.15"], ["101.325"], ["1.4487", "0.00059"]], [["298.15"], ["101.325"], ["1.44723", "0.00059"]], [["303.15"], ["101.325"], ["1.44568", "0.00059"]], [["308.15"], ["101.325"], ["1.44413", "0.00059"]], [["313.15"], ["101.325"], ["1.44262", "0.00059"]], [["318.15"], ["101.325"], ["1.44115", "0.00058"]], [["323.15"], ["101.325"], ["1.43972", "0.00058"]], [["328.15"], ["101.325"], ["1.43827", "0.00058"]], [["333.15"], ["101.325"], ["1.43681", "0.00058"]]], "solvent": null, "expmeth": "Standard Abbe refractometry", "ref": {"title": "Thermophysical properties of 1-alkylpyridinum  bis(trifluoromethylsulfonyl)imide ionic liquids", "full": "Yunus, N. M.; Mutalib, M. I. A.; Man, Z.; Bustam, M. A.; Murugesan, T. (2010) J. Chem. Thermodyn. 42(4), 491-495."}, "constr": [], "phases": ["Liquid"]}