{"title": "Refraction, surface tension, and speed of sound: Refractive index (Na D-line)", "components": [{"name": "1-methyl-3-octylimidazolium tetrafluoroborate", "formula": "C<SUB>12</SUB>H<SUB>23</SUB>BF<SUB>4</SUB>N<SUB>2</SUB>", "idout": "ABCNhW", "mw": "282.13", "sample": [["Source:", "synthesized by the authors"], ["Purification:", "not known"], ["Purity:", "99.1 mass %(dried by vacuum heating)"]]}, {"name": "N-ethylaminobenzene", "formula": "C<SUB>8</SUB>H<SUB>11</SUB>N", "idout": "AAXPsE", "mw": "121.18", "sample": [["Source:", "commercial source"], ["Initial purification:", "stated by supplier"], ["Initial purity:", "97.0 mass %"], ["Final purification:", "gas chromatography"], ["Final purity:", "99.5 mass %(fractional distillation)"]]}], "dhead": [["Temperature, K", null], ["Mole fraction of 1-methyl-3-octylimidazolium tetrafluoroborate", "Liquid"], ["Pressure, kPa", null], ["Refractive index (Na D-line)", "Liquid"]], "footer": "", "data": [[["293.15"], ["0"], ["101.3"], ["1.55427", "0.001"]], [["293.15"], ["0.0847"], ["101.3"], ["1.53337", "0.001"]], [["293.15"], ["0.1762"], ["101.3"], ["1.51589", "0.001"]], [["293.15"], ["0.2966"], ["101.3"], ["1.49963", "0.001"]], [["293.15"], ["0.4191"], ["101.3"], ["1.48652", "0.001"]], [["293.15"], ["0.513"], ["101.3"], ["1.47735", "0.001"]], [["293.15"], ["0.6174"], ["101.3"], ["1.46792", "0.001"]], [["293.15"], ["0.6997"], ["101.3"], ["1.46058", "0.001"]], [["293.15"], ["0.79"], ["101.3"], ["1.45224", "0.001"]], [["293.15"], ["0.899"], ["101.3"], ["1.44245", "0.001"]], [["293.15"], ["1"], ["101.3"], ["1.43387", "0.0011"]], [["298.15"], ["0"], ["101.3"], ["1.55176", "0.001"]], [["298.15"], ["0.0847"], ["101.3"], ["1.53172", "0.001"]], [["298.15"], ["0.1762"], ["101.3"], ["1.51445", "0.001"]], [["298.15"], ["0.2966"], ["101.3"], ["1.49818", "0.001"]], [["298.15"], ["0.4191"], ["101.3"], ["1.48495", "0.001"]], [["298.15"], ["0.513"], ["101.3"], ["1.47599", "0.001"]], [["298.15"], ["0.6174"], ["101.3"], ["1.46669", "0.001"]], [["298.15"], ["0.6997"], ["101.3"], ["1.45929", "0.001"]], [["298.15"], ["0.79"], ["101.3"], ["1.45105", "0.001"]], [["298.15"], ["0.899"], ["101.3"], ["1.44129", "0.001"]], [["298.15"], ["1"], ["101.3"], ["1.43253", "0.0011"]], [["303.15"], ["0"], ["101.3"], ["1.54924", "0.001"]], [["303.15"], ["0.0847"], ["101.3"], ["1.52997", "0.001"]], [["303.15"], ["0.1762"], ["101.3"], ["1.51294", "0.001"]], [["303.15"], ["0.2966"], ["101.3"], ["1.49681", "0.001"]], [["303.15"], ["0.4191"], ["101.3"], ["1.48364", "0.001"]], [["303.15"], ["0.513"], ["101.3"], ["1.47466", "0.001"]], [["303.15"], ["0.6174"], ["101.3"], ["1.46548", "0.001"]], [["303.15"], ["0.6997"], ["101.3"], ["1.45818", "0.001"]], [["303.15"], ["0.79"], ["101.3"], ["1.44989", "0.001"]], [["303.15"], ["0.899"], ["101.3"], ["1.44019", "0.001"]], [["303.15"], ["1"], ["101.3"], ["1.43119", "0.0011"]], [["308.15"], ["0"], ["101.3"], ["1.54672", "0.001"]], [["308.15"], ["0.0847"], ["101.3"], ["1.52793", "0.001"]], [["308.15"], ["0.1762"], ["101.3"], ["1.51116", "0.001"]], [["308.15"], ["0.2966"], ["101.3"], ["1.49525", "0.001"]], [["308.15"], ["0.4191"], ["101.3"], ["1.48189", "0.001"]], [["308.15"], ["0.513"], ["101.3"], ["1.47311", "0.001"]], [["308.15"], ["0.6174"], ["101.3"], ["1.46413", "0.001"]], [["308.15"], ["0.6997"], ["101.3"], ["1.45707", "0.001"]], [["308.15"], ["0.79"], ["101.3"], ["1.44851", "0.001"]], [["308.15"], ["0.899"], ["101.3"], ["1.43887", "0.001"]], [["308.15"], ["1"], ["101.3"], ["1.42984", "0.0011"]], [["313.15"], ["0"], ["101.3"], ["1.54422", "0.001"]], [["313.15"], ["0.0847"], ["101.3"], ["1.52579", "0.001"]], [["313.15"], ["0.1762"], ["101.3"], ["1.50937", "0.001"]], [["313.15"], ["0.2966"], ["101.3"], ["1.49355", "0.001"]], [["313.15"], ["0.4191"], ["101.3"], ["1.48044", "0.001"]], [["313.15"], ["0.513"], ["101.3"], ["1.47166", "0.001"]], [["313.15"], ["0.6174"], ["101.3"], ["1.46288", "0.001"]], [["313.15"], ["0.6997"], ["101.3"], ["1.45567", "0.001"]], [["313.15"], ["0.79"], ["101.3"], ["1.44726", "0.001"]], [["313.15"], ["0.899"], ["101.3"], ["1.43777", "0.001"]], [["313.15"], ["1"], ["101.3"], ["1.42849", "0.0011"]], [["318.15"], ["0"], ["101.3"], ["1.54169", "0.001"]], [["318.15"], ["0.0847"], ["101.3"], ["1.52382", "0.001"]], [["318.15"], ["0.1762"], ["101.3"], ["1.50751", "0.001"]], [["318.15"], ["0.2966"], ["101.3"], ["1.49201", "0.001"]], [["318.15"], ["0.4191"], ["101.3"], ["1.47861", "0.001"]], [["318.15"], ["0.513"], ["101.3"], ["1.47041", "0.001"]], [["318.15"], ["0.6174"], ["101.3"], ["1.46122", "0.001"]], [["318.15"], ["0.6997"], ["101.3"], ["1.45407", "0.001"]], [["318.15"], ["0.79"], ["101.3"], ["1.44603", "0.001"]], [["318.15"], ["0.899"], ["101.3"], ["1.43649", "0.001"]], [["318.15"], ["1"], ["101.3"], ["1.42715", "0.0011"]], [["323.15"], ["0"], ["101.3"], ["1.53919", "0.001"]], [["323.15"], ["0.0847"], ["101.3"], ["1.52182", "0.001"]], [["323.15"], ["0.1762"], ["101.3"], ["1.50585", "0.001"]], [["323.15"], ["0.2966"], ["101.3"], ["1.49026", "0.001"]], [["323.15"], ["0.4191"], ["101.3"], ["1.47706", "0.001"]], [["323.15"], ["0.513"], ["101.3"], ["1.46885", "0.001"]], [["323.15"], ["0.6174"], ["101.3"], ["1.45999", "0.001"]], [["323.15"], ["0.6997"], ["101.3"], ["1.45283", "0.001"]], [["323.15"], ["0.79"], ["101.3"], ["1.44485", "0.001"]], [["323.15"], ["0.899"], ["101.3"], ["1.43522", "0.001"]], [["323.15"], ["1"], ["101.3"], ["1.42583", "0.0011"]]], "solvent": null, "expmeth": "Standard Abbe refractometry", "ref": {"title": "Temperature, Composition, and Alkyl Chain-Dependent Molecular Interactions between Imidazolium-Based Ionic Liquids with N-Methylaniline and N-Ethylaniline: Experimental and Theoretical Study", "full": "Master, Z.; Malek, N. I. (2020) J. Chem. Eng. Data 65(11), 5249-5265."}, "constr": [], "phases": ["Liquid"]}