{"constr": [], "ref": {"title": "Densities, Viscosities, and Refractive Indices of Binary Room-Temperature Ionic Liquids with Common Cations/Anions", "full": "Seki, Shiro; Serizawa, Nobuyuki; Ono, Shimpei; Takei, Katsuhito; Hayamizu, Kikuko; Tsuzuki, Seiji; Umebayashi, Yasuhiro (2019) J. Chem. Eng. Data 64(2), 433-441."}, "phases": ["Liquid"], "title": "Refraction, surface tension, and speed of sound: Refractive index (Na D-line)", "components": [{"name": "1-butyl-1-methylpyrrolidinium bis(fluorosulfonyl)amide", "formula": "C<SUB>9</SUB>H<SUB>20</SUB>F<SUB>2</SUB>N<SUB>2</SUB>O<SUB>4</SUB>S<SUB>2</SUB>", "idout": "ABJzqe", "mw": "322.39", "sample": [["Source:", "synthesized by the authors"], ["Purification:", "estimated by the compiler"], ["Purity:", "98 mass %"]]}, {"name": "1-butyl-1-methylpyrrolidinium bis(oxalato)borate", "formula": "C<SUB>13</SUB>H<SUB>20</SUB>BNO<SUB>8</SUB>", "idout": "ABLPzJ", "mw": "329.11", "sample": [["Source:", "synthesized by the authors"], ["Purification:", "estimated by the compiler"], ["Purity:", "98 mass %"]]}], "dhead": [["Temperature, K", null], ["Mole fraction of 1-butyl-1-methylpyrrolidinium bis(fluorosulfonyl)amide", "Liquid"], ["Pressure, kPa", null], ["Refractive index (Na D-line)", "Liquid"]], "footer": "", "data": [[["283.15"], ["0.6"], ["101.3"], ["1.4635", "0.0008"]], [["283.15"], ["0.8"], ["101.3"], ["1.4588", "0.0008"]], [["283.15"], ["1"], ["101.3"], ["1.453", "0.0006"]], [["288.15"], ["0.6"], ["101.3"], ["1.462", "0.0008"]], [["288.15"], ["0.8"], ["101.3"], ["1.4573", "0.0008"]], [["288.15"], ["1"], ["101.3"], ["1.4517", "0.0006"]], [["293.15"], ["0.4"], ["101.3"], ["1.4646", "0.0008"]], [["293.15"], ["0.6"], ["101.3"], ["1.4605", "0.0008"]], [["293.15"], ["0.8"], ["101.3"], ["1.4559", "0.0008"]], [["293.15"], ["1"], ["101.3"], ["1.4503", "0.0006"]], [["298.15"], ["0.2"], ["101.3"], ["1.4664", "0.0007"]], [["298.15"], ["0.4"], ["101.3"], ["1.463", "0.0007"]], [["298.15"], ["0.6"], ["101.3"], ["1.459", "0.0008"]], [["298.15"], ["0.8"], ["101.3"], ["1.4544", "0.0008"]], [["298.15"], ["1"], ["101.3"], ["1.4489", "0.0006"]], [["303.15"], ["0"], ["101.3"], ["1.4685", "0.0006"]], [["303.15"], ["0.2"], ["101.3"], ["1.4648", "0.0007"]], [["303.15"], ["0.4"], ["101.3"], ["1.4615", "0.0007"]], [["303.15"], ["0.6"], ["101.3"], ["1.4575", "0.0008"]], [["303.15"], ["0.8"], ["101.3"], ["1.453", "0.0008"]], [["303.15"], ["1"], ["101.3"], ["1.4476", "0.0006"]], [["308.15"], ["0"], ["101.3"], ["1.4669", "0.0006"]], [["308.15"], ["0.2"], ["101.3"], ["1.4633", "0.0007"]], [["308.15"], ["0.4"], ["101.3"], ["1.46", "0.0007"]], [["308.15"], ["0.6"], ["101.3"], ["1.456", "0.0008"]], [["308.15"], ["0.8"], ["101.3"], ["1.4516", "0.0008"]], [["308.15"], ["1"], ["101.3"], ["1.4462", "0.0006"]], [["313.15"], ["0"], ["101.3"], ["1.4653", "0.0006"]], [["313.15"], ["0.2"], ["101.3"], ["1.4617", "0.0007"]], [["313.15"], ["0.4"], ["101.3"], ["1.4584", "0.0007"]], [["313.15"], ["0.6"], ["101.3"], ["1.4545", "0.0008"]], [["313.15"], ["0.8"], ["101.3"], ["1.4501", "0.0008"]], [["313.15"], ["1"], ["101.3"], ["1.4449", "0.0006"]], [["318.15"], ["0"], ["101.3"], ["1.4638", "0.0006"]], [["318.15"], ["0.2"], ["101.3"], ["1.4602", "0.0007"]], [["318.15"], ["0.4"], ["101.3"], ["1.457", "0.0007"]], [["318.15"], ["0.6"], ["101.3"], ["1.453", "0.0008"]], [["318.15"], ["0.8"], ["101.3"], ["1.4487", "0.0008"]], [["318.15"], ["1"], ["101.3"], ["1.4436", "0.0006"]], [["323.15"], ["0"], ["101.3"], ["1.4622", "0.0006"]], [["323.15"], ["0.2"], ["101.3"], ["1.4586", "0.0007"]], [["323.15"], ["0.4"], ["101.3"], ["1.4555", "0.0007"]], [["323.15"], ["0.6"], ["101.3"], ["1.4516", "0.0008"]], [["323.15"], ["0.8"], ["101.3"], ["1.4473", "0.0008"]], [["323.15"], ["1"], ["101.3"], ["1.4422", "0.0006"]], [["328.15"], ["0"], ["101.3"], ["1.4607", "0.0006"]], [["328.15"], ["0.2"], ["101.3"], ["1.4571", "0.0007"]], [["328.15"], ["0.4"], ["101.3"], ["1.4539", "0.0007"]], [["328.15"], ["0.6"], ["101.3"], ["1.4501", "0.0008"]], [["328.15"], ["0.8"], ["101.3"], ["1.4459", "0.0008"]], [["328.15"], ["1"], ["101.3"], ["1.4409", "0.0006"]], [["333.15"], ["0"], ["101.3"], ["1.4591", "0.0006"]], [["333.15"], ["0.2"], ["101.3"], ["1.4556", "0.0007"]], [["333.15"], ["0.4"], ["101.3"], ["1.4525", "0.0007"]], [["333.15"], ["0.6"], ["101.3"], ["1.4486", "0.0008"]], [["333.15"], ["0.8"], ["101.3"], ["1.4445", "0.0008"]], [["333.15"], ["1"], ["101.3"], ["1.4396", "0.0006"]], [["338.15"], ["0"], ["101.3"], ["1.4576", "0.0006"]], [["338.15"], ["0.2"], ["101.3"], ["1.454", "0.0007"]], [["338.15"], ["0.4"], ["101.3"], ["1.451", "0.0007"]], [["338.15"], ["0.6"], ["101.3"], ["1.4472", "0.0007"]], [["338.15"], ["0.8"], ["101.3"], ["1.4431", "0.0008"]], [["338.15"], ["1"], ["101.3"], ["1.4383", "0.0006"]], [["343.15"], ["0"], ["101.3"], ["1.4561", "0.0006"]], [["343.15"], ["0.2"], ["101.3"], ["1.4525", "0.0007"]], [["343.15"], ["0.4"], ["101.3"], ["1.4495", "0.0007"]], [["343.15"], ["0.6"], ["101.3"], ["1.4457", "0.0007"]], [["343.15"], ["0.8"], ["101.3"], ["1.4417", "0.0008"]], [["343.15"], ["1"], ["101.3"], ["1.437", "0.0006"]], [["348.15"], ["0"], ["101.3"], ["1.4546", "0.0006"]], [["348.15"], ["0.2"], ["101.3"], ["1.451", "0.0007"]], [["348.15"], ["0.4"], ["101.3"], ["1.448", "0.0007"]], [["348.15"], ["0.6"], ["101.3"], ["1.4443", "0.0007"]], [["348.15"], ["0.8"], ["101.3"], ["1.4403", "0.0008"]], [["348.15"], ["1"], ["101.3"], ["1.4357", "0.0006"]], [["353.15"], ["0"], ["101.3"], ["1.4531", "0.0006"]], [["353.15"], ["0.2"], ["101.3"], ["1.4495", "0.0007"]], [["353.15"], ["0.4"], ["101.3"], ["1.4466", "0.0007"]], [["353.15"], ["0.6"], ["101.3"], ["1.4429", "0.0007"]], [["353.15"], ["0.8"], ["101.3"], ["1.439", "0.0008"]], [["353.15"], ["1"], ["101.3"], ["1.4344", "0.0006"]]], "solvent": null, "expmeth": "Standard Abbe refractometry"}