{"components": [{"formula": "C<SUB>8</SUB>H<SUB>15</SUB>BrN<SUB>2</SUB>", "name": "1-butyl-3-methylimidazolium bromide", "idout": "AAqHiH", "mw": "219.13", "sample": [["Source:", "synthesized by the authors"], ["Purification:", "estimated by the compiler"], ["Purity:", "99 mass %"], ["Purity analysis:", "dried by vacuum heating"]]}], "title": "Refraction, surface tension, and speed of sound: Refractive index (Na D-line)", "dhead": [["Temperature, K", null], ["Pressure, kPa", null], ["Refractive index (Na D-line)", "Liquid"]], "data": [[["298.2"], ["101.325"], ["1.545", "0.0019"]], [["303.2"], ["101.325"], ["1.5446", "0.0019"]], [["308.2"], ["101.325"], ["1.542", "0.0019"]], [["313.2"], ["101.325"], ["1.541", "0.0019"]], [["318.2"], ["101.325"], ["1.5398", "0.0019"]], [["323.2"], ["101.325"], ["1.5369", "0.0019"]]], "solvent": null, "footer": "", "expmeth": "Standard Abbe refractometry", "constr": [], "ref": {"full": "Kim, K.-S.; Shin, B.-K.; Lee, H. (2004) Korean J. Chem. Eng. 21(5), 1010-1014.", "title": "Physical and Electrochemical Properties of 1-Butyl-3-methylimidazolium Bromide, 1-Butyl-3-methylimidazolium Iodide, and 1-Butyl-3-methylimidazolium Tetrafluoroborate"}, "phases": ["Liquid"]}