{"phases": ["Liquid"], "constr": [], "ref": {"full": "Venkatraman, V.; Raj, J. J.; Evjen, S.; Lethesh, K. C.; Fiksdahl, A. (2018) J. Mol. Liq. 264, 563-570.", "title": "In silico prediction and experimental verification of ionic liquid refractive indices"}, "expmeth": "Standard Abbe refractometry", "data": [[["293"], ["101.325"], ["1.528", "0.01"]], [["303"], ["101.325"], ["1.524", "0.01"]], [["313"], ["101.325"], ["1.521", "0.01"]], [["323"], ["101.325"], ["1.518", "0.01"]], [["333"], ["101.325"], ["1.514", "0.01"]]], "solvent": null, "footer": "", "dhead": [["Temperature, K", null], ["Pressure, kPa", null], ["Refractive index (Na D-line)", "Liquid"]], "components": [{"name": "3-ethyl-1-(3-methoxy-3-oxopropyl)imidazolium dicyanamide", "formula": "C<SUB>11</SUB>H<SUB>15</SUB>N<SUB>5</SUB>O<SUB>2</SUB>", "idout": "AAvwTy", "mw": "249.27", "sample": [["Source:", "synthesized by the authors"], ["Purity analysis:", "purification method described elsewhere"]]}], "title": "Refraction, surface tension, and speed of sound: Refractive index (Na D-line)"}