{"components": [{"sample": [["Source:", "commercial source"], ["Purification:", "stated by supplier"], ["Purity:", "99 mass %"], ["Purity analysis:", "dried by vacuum heating"]], "idout": "AARGJq", "mw": "89.09", "formula": "C<SUB>3</SUB>H<SUB>7</SUB>NO<SUB>2</SUB>", "name": "(S)-2-aminopropanoic acid"}, {"sample": [["Source:", "commercial source"], ["Purification:", "estimated by the compiler"], ["Purity:", "99.8 mass %(fractional distillation)"]], "formula": "H<SUB>2</SUB>O", "name": "water", "mw": "18.02", "idout": "AADYJk"}, {"idout": "AAvbcc", "mw": "247.18", "name": "1-hexyl-3-methyl-1H-imidazolium bromide", "formula": "C<SUB>10</SUB>H<SUB>19</SUB>BrN<SUB>2</SUB>", "sample": [["Source:", "synthesized by the authors"], ["Purification:", "NMR (proton);Karl Fischer titration"], ["Purity:", "98 mass %;5 water mass %"]]}], "title": "Refraction, surface tension, and speed of sound: Refractive index (Na D-line)", "dhead": [["Solvent: MolaLity of 1-hexyl-3-methyl-1H-imidazolium bromide, mol/kg", "Liquid"], ["MolaLity of (S)-2-aminopropanoic acid, mol/kg", "Liquid"], ["Temperature, K", null], ["Pressure, kPa", null], ["Refractive index (Na D-line)", "Liquid"]], "data": [[["0"], ["0"], ["298.15"], ["101"], ["1.3325", "0.0005"]], [["0"], ["0.0533"], ["298.15"], ["101"], ["1.3326", "0.0005"]], [["0"], ["0.091"], ["298.15"], ["101"], ["1.333", "0.0005"]], [["0"], ["0.1496"], ["298.15"], ["101"], ["1.3337", "0.0005"]], [["0"], ["0.1913"], ["298.15"], ["101"], ["1.3342", "0.0005"]], [["0"], ["0.2516"], ["298.15"], ["101"], ["1.335", "0.0005"]], [["0"], ["0.2926"], ["298.15"], ["101"], ["1.3355", "0.0005"]], [["0"], ["0.3514"], ["298.15"], ["101"], ["1.3362", "0.0005"]], [["0"], ["0.3799"], ["298.15"], ["101"], ["1.3366", "0.0005"]], [["0"], ["0.4471"], ["298.15"], ["101"], ["1.3376", "0.0005"]], [["0"], ["0.4827"], ["298.15"], ["101"], ["1.3381", "0.0005"]], [["0.1016"], ["0"], ["298.15"], ["101"], ["1.3366", "0.0005"]], [["0.1016"], ["0.0508"], ["298.15"], ["101"], ["1.337", "0.0005"]], [["0.1016"], ["0.099"], ["298.15"], ["101"], ["1.3377", "0.0005"]], [["0.1016"], ["0.1521"], ["298.15"], ["101"], ["1.3385", "0.0005"]], [["0.1016"], ["0.1972"], ["298.15"], ["101"], ["1.3392", "0.0005"]], [["0.1016"], ["0.2528"], ["298.15"], ["101"], ["1.3401", "0.0005"]], [["0.1016"], ["0.2908"], ["298.15"], ["101"], ["1.3407", "0.0005"]], [["0.1016"], ["0.3435"], ["298.15"], ["101"], ["1.3415", "0.0005"]], [["0.1016"], ["0.3934"], ["298.15"], ["101"], ["1.3423", "0.0005"]], [["0.1016"], ["0.4468"], ["298.15"], ["101"], ["1.3431", "0.0005"]], [["0.1982"], ["0"], ["298.15"], ["101"], ["1.34", "0.0005"]], [["0.1982"], ["0.0561"], ["298.15"], ["101"], ["1.3409", "0.0005"]], [["0.1982"], ["0.1009"], ["298.15"], ["101"], ["1.3415", "0.0005"]], [["0.1982"], ["0.1518"], ["298.15"], ["101"], ["1.3423", "0.0005"]], [["0.1982"], ["0.1972"], ["298.15"], ["101"], ["1.343", "0.0005"]], [["0.1982"], ["0.2483"], ["298.15"], ["101"], ["1.3437", "0.0005"]], [["0.1982"], ["0.2875"], ["298.15"], ["101"], ["1.3443", "0.0005"]], [["0.1982"], ["0.351"], ["298.15"], ["101"], ["1.3453", "0.0005"]], [["0.1982"], ["0.3997"], ["298.15"], ["101"], ["1.346", "0.0005"]], [["0.1982"], ["0.446"], ["298.15"], ["101"], ["1.3467", "0.0005"]], [["0.3026"], ["0"], ["298.15"], ["101"], ["1.3433", "0.0005"]], [["0.3026"], ["0.0627"], ["298.15"], ["101"], ["1.3446", "0.0005"]], [["0.3026"], ["0.1013"], ["298.15"], ["101"], ["1.3452", "0.0005"]], [["0.3026"], ["0.1498"], ["298.15"], ["101"], ["1.3459", "0.0005"]], [["0.3026"], ["0.1993"], ["298.15"], ["101"], ["1.3466", "0.0005"]], [["0.3026"], ["0.2509"], ["298.15"], ["101"], ["1.3474", "0.0005"]], [["0.3026"], ["0.2899"], ["298.15"], ["101"], ["1.3479", "0.0005"]], [["0.3026"], ["0.3471"], ["298.15"], ["101"], ["1.3488", "0.0005"]], [["0.3026"], ["0.3878"], ["298.15"], ["101"], ["1.3494", "0.0005"]], [["0.3841"], ["0"], ["298.15"], ["101"], ["1.346", "0.0005"]], [["0.3841"], ["0.0537"], ["298.15"], ["101"], ["1.3476", "0.0005"]], [["0.3841"], ["0.1498"], ["298.15"], ["101"], ["1.3489", "0.0005"]], [["0.3841"], ["0.1957"], ["298.15"], ["101"], ["1.3496", "0.0005"]], [["0.3841"], ["0.2478"], ["298.15"], ["101"], ["1.3504", "0.0005"]], [["0.3841"], ["0.2971"], ["298.15"], ["101"], ["1.3511", "0.0005"]], [["0.3841"], ["0.3455"], ["298.15"], ["101"], ["1.3519", "0.0005"]], [["0.3841"], ["0.3883"], ["298.15"], ["101"], ["1.3526", "0.0005"]]], "solvent": "water + 1-hexyl-3-methyl-1H-imidazolium bromide", "footer": "", "expmeth": "Standard Abbe refractometry", "constr": [], "ref": {"title": "Densities and electrical conductances of amino acids + ionic liquid ([HMIm]Br) + H2O mixtures at 298.15 K", "full": "Shekaari, H.; Jebali, F. (2010) Fluid Phase Equilib. 295(1), 68-75."}, "phases": ["Liquid"]}