{"title": "Refraction, surface tension, and speed of sound: Refractive index (Na D-line)", "components": [{"sample": [["Source:", "commercial source"], ["Initial purification:", "stated by supplier"], ["Initial purity:", "99 mass %"], ["Final purification:", "Karl Fischer titration"], ["Final purity:", "0.041 water mass %(dried by vacuum heating)"]], "formula": "C<SUB>12</SUB>H<SUB>19</SUB>F<SUB>6</SUB>N<SUB>3</SUB>O<SUB>4</SUB>S<SUB>2</SUB>", "name": "1-hexyl-3-methylimidazolium bis[(trifluoromethyl)sulfonyl]imide", "idout": "ABiCtA", "mw": "447.41"}], "dhead": [["Temperature, K", null], ["Pressure, kPa", null], ["Refractive index (Na D-line)", "Liquid"]], "footer": "", "data": [[["293.15"], ["100"], ["1.431", "0.0005"]], [["298.15"], ["100"], ["1.4296", "0.0005"]], [["303.15"], ["100"], ["1.4281", "0.0005"]], [["308.15"], ["100"], ["1.4263", "0.0005"]], [["313.15"], ["100"], ["1.4251", "0.0005"]]], "solvent": null, "expmeth": "Standard Abbe refractometry", "constr": [], "ref": {"title": "Thermodynamic study of binary mixtures of 2-propanol with ionic liquids, 1-hexyl-3-methylimidazolium bis(trifluoromethylsulfonyl)imide, 1-hexyl-3-methylimidazolium trifluoromethanesulfonate and triethylhexylammonium bis(trifluoromethylsulfonyl)imide", "full": "Warminska, Dorota; Cichowska-Kopczynska, Iwona (2022) J. Chem. Thermodyn. 171, 106789."}, "phases": ["Liquid"]}