{"ref": {"full": "Pereiro, A. B.; Rodriguez, A. (2007) J. Chem. Eng. Data 52(2), 600-608.", "title": "Thermodynamic Properties of Ionic Liquids in Organic Solvents from (293.15 to 303.15) K"}, "constr": [], "phases": ["Liquid"], "components": [{"idout": "AANtck", "mw": "72.11", "formula": "C<SUB>4</SUB>H<SUB>8</SUB>O", "name": "butanone", "sample": [["Source:", "commercial source"], ["Purification:", "gas chromatography"], ["Purity:", "99.5 mass %(de-gassed by boiling or ultrasonically;molecular sieve treatment)"]]}, {"sample": [["Source:", "commercial source"], ["Purification:", "Karl Fischer titration;gas chromatography"], ["Purity:", "0.03 water mass %;98 mass %(dried by vacuum heating)"]], "mw": "208.23", "idout": "AAoCnc", "formula": "C<SUB>6</SUB>H<SUB>12</SUB>N<SUB>2</SUB>O<SUB>4</SUB>S", "name": "1,3-dimethylimidazolium methylsulfate"}], "title": "Refraction, surface tension, and speed of sound: Refractive index (Na D-line)", "dhead": [["Temperature, K", null], ["Mole fraction of 1,3-dimethylimidazolium methylsulfate", "Liquid"], ["Pressure, kPa", null], ["Refractive index (Na D-line)", "Liquid"]], "data": [[["293.15"], ["0"], ["101"], ["1.37879", "0.00082"]], [["293.15"], ["0.0006"], ["101"], ["1.37993", "0.00084"]], [["293.15"], ["0.0012"], ["101"], ["1.3804", "0.00081"]], [["293.15"], ["0.0029"], ["101"], ["1.3813", "0.00087"]], [["293.15"], ["0.7074"], ["101"], ["1.47023", "0.00072"]], [["293.15"], ["0.7983"], ["101"], ["1.47479", "0.00073"]], [["293.15"], ["0.9284"], ["101"], ["1.48045", "0.00076"]], [["293.15"], ["0.9743"], ["101"], ["1.48218", "0.0008"]], [["293.15"], ["1"], ["101"], ["1.48392", "0.00078"]], [["298.15"], ["0"], ["101"], ["1.37618", "0.00082"]], [["298.15"], ["0.0006"], ["101"], ["1.3772", "0.00083"]], [["298.15"], ["0.0012"], ["101"], ["1.37762", "0.00083"]], [["298.15"], ["0.0029"], ["101"], ["1.37841", "0.00084"]], [["298.15"], ["0.7074"], ["101"], ["1.46925", "0.00073"]], [["298.15"], ["0.7983"], ["101"], ["1.47366", "0.00075"]], [["298.15"], ["0.9284"], ["101"], ["1.47914", "0.00077"]], [["298.15"], ["0.9743"], ["101"], ["1.48086", "0.00078"]], [["298.15"], ["1"], ["101"], ["1.4827", "0.00078"]], [["303.15"], ["0"], ["101"], ["1.37355", "0.00082"]], [["303.15"], ["0.0006"], ["101"], ["1.37467", "0.00081"]], [["303.15"], ["0.0012"], ["101"], ["1.37513", "0.00087"]], [["303.15"], ["0.0029"], ["101"], ["1.376", "0.00081"]], [["303.15"], ["0.7074"], ["101"], ["1.46782", "0.00075"]], [["303.15"], ["0.7983"], ["101"], ["1.47229", "0.00078"]], [["303.15"], ["0.9284"], ["101"], ["1.47781", "0.00078"]], [["303.15"], ["0.9743"], ["101"], ["1.47945", "0.00076"]], [["303.15"], ["1"], ["101"], ["1.48129", "0.00079"]]], "solvent": null, "footer": "", "expmeth": "Standard Abbe refractometry"}