{"components": [{"sample": [["Source:", "commercial source"], ["Purification:", "NMR (proton);Karl Fischer titration"], ["Purity:", "99 mass %;0.07 water mass %(de-gassed by boiling or ultrasonically;molecular sieve treatment)"]], "mw": "247.31", "idout": "AAvdhf", "formula": "C<SUB>10</SUB>H<SUB>17</SUB>NO<SUB>4</SUB>S", "name": "1-ethyl-3-methylpyridinium ethylsulfate"}], "title": "Refraction, surface tension, and speed of sound: Refractive index (Na D-line)", "dhead": [["Temperature, K", null], ["Pressure, kPa", null], ["Refractive index (Na D-line)", "Liquid"]], "solvent": null, "data": [[["298.15"], ["101.325"], ["1.50591", "0.00038"]]], "footer": "", "expmeth": "Standard Abbe refractometry", "constr": [], "ref": {"full": "Gonzalez, E. J.; Dominguez, I.; Gonzalez, B.; Canosa, J. (2010) Fluid Phase Equilib. 296(2), 213-218.", "title": "Liquid-liquid equilibria for ternary systems of {cyclohexane + aromatic compounds + 1-ethyl-3-methylpyridinium ethylsulfate}"}, "phases": ["Liquid"]}