{"components": [{"sample": [["Source:", "commercial source"], ["Initial purification:", "stated by supplier"], ["Initial purity:", "99 mass %"], ["Final purification:", "gas chromatography"], ["Final purity:", "99.3 mass %(dried with chemical reagent;fractional distillation)"]], "name": "tetrahydrofuran", "formula": "C<SUB>4</SUB>H<SUB>8</SUB>O", "idout": "AANtst", "mw": "72.11"}, {"idout": "ABNWoR", "mw": "340.29", "name": "1-octyl-3-methylimidazolium hexafluorophosphate", "formula": "C<SUB>12</SUB>H<SUB>23</SUB>F<SUB>6</SUB>N<SUB>2</SUB>P", "sample": [["Source:", "synthesized by the authors"], ["Initial purification:", "estimated by the compiler"], ["Initial purity:", "98 mass %"], ["Final purification:", "Karl Fischer titration"], ["Final purity:", "0.0131 water mass %(dried by vacuum heating)"]]}], "title": "Refraction, surface tension, and speed of sound: Refractive index (Na D-line)", "dhead": [["Mole fraction of 1-octyl-3-methylimidazolium hexafluorophosphate", "Liquid"], ["Temperature, K", null], ["Pressure, kPa", null], ["Refractive index (Na D-line)", "Liquid"]], "data": [[["0"], ["293.15"], ["100.7"], ["1.40696", "0.0016"]], [["0"], ["298.15"], ["100.7"], ["1.4042", "0.0016"]], [["0"], ["303.15"], ["100.7"], ["1.40157", "0.0016"]], [["0"], ["308.15"], ["100.7"], ["1.39885", "0.0016"]], [["0"], ["313.15"], ["100.7"], ["1.39623", "0.0016"]], [["0"], ["318.15"], ["100.7"], ["1.39349", "0.0016"]], [["0"], ["323.15"], ["100.7"], ["1.39083", "0.0016"]], [["0.0767"], ["293.15"], ["100.7"], ["1.41505", "0.0016"]], [["0.0767"], ["298.15"], ["100.7"], ["1.41278", "0.0016"]], [["0.0767"], ["303.15"], ["100.7"], ["1.41061", "0.0016"]], [["0.0767"], ["308.15"], ["100.7"], ["1.40824", "0.0016"]], [["0.0767"], ["313.15"], ["100.7"], ["1.40587", "0.0016"]], [["0.0767"], ["318.15"], ["100.7"], ["1.4035", "0.0016"]], [["0.0767"], ["323.15"], ["100.7"], ["1.40113", "0.0016"]], [["0.1791"], ["293.15"], ["100.7"], ["1.4205", "0.0016"]], [["0.1791"], ["298.15"], ["100.7"], ["1.41848", "0.0016"]], [["0.1791"], ["303.15"], ["100.7"], ["1.41646", "0.0016"]], [["0.1791"], ["308.15"], ["100.7"], ["1.41452", "0.0016"]], [["0.1791"], ["313.15"], ["100.7"], ["1.41284", "0.0016"]], [["0.1791"], ["318.15"], ["100.7"], ["1.41116", "0.0016"]], [["0.1791"], ["323.15"], ["100.7"], ["1.40948", "0.0016"]], [["0.2783"], ["293.15"], ["100.7"], ["1.42326", "0.0016"]], [["0.2783"], ["298.15"], ["100.7"], ["1.42126", "0.0016"]], [["0.2783"], ["303.15"], ["100.7"], ["1.41956", "0.0016"]], [["0.2783"], ["308.15"], ["100.7"], ["1.41786", "0.0016"]], [["0.2783"], ["313.15"], ["100.7"], ["1.41616", "0.0016"]], [["0.2783"], ["318.15"], ["100.7"], ["1.41446", "0.0016"]], [["0.2783"], ["323.15"], ["100.7"], ["1.41276", "0.0016"]], [["0.3996"], ["293.15"], ["100.7"], ["1.42412", "0.0016"]], [["0.3996"], ["298.15"], ["100.7"], ["1.42242", "0.0016"]], [["0.3996"], ["303.15"], ["100.7"], ["1.42076", "0.0016"]], [["0.3996"], ["308.15"], ["100.7"], ["1.4191", "0.0016"]], [["0.3996"], ["313.15"], ["100.7"], ["1.41744", "0.0016"]], [["0.3996"], ["318.15"], ["100.7"], ["1.41578", "0.0016"]], [["0.3996"], ["323.15"], ["100.7"], ["1.41412", "0.0016"]], [["0.5198"], ["293.15"], ["100.7"], ["1.42414", "0.0016"]], [["0.5198"], ["298.15"], ["100.7"], ["1.42258", "0.0016"]], [["0.5198"], ["303.15"], ["100.7"], ["1.42102", "0.0016"]], [["0.5198"], ["308.15"], ["100.7"], ["1.41946", "0.0016"]], [["0.5198"], ["313.15"], ["100.7"], ["1.4179", "0.0016"]], [["0.5198"], ["318.15"], ["100.7"], ["1.41634", "0.0016"]], [["0.5198"], ["323.15"], ["100.7"], ["1.41478", "0.0016"]], [["0.612"], ["293.15"], ["100.7"], ["1.42411", "0.0016"]], [["0.612"], ["298.15"], ["100.7"], ["1.42272", "0.0016"]], [["0.612"], ["303.15"], ["100.7"], ["1.42123", "0.0016"]], [["0.612"], ["308.15"], ["100.7"], ["1.41974", "0.0016"]], [["0.612"], ["313.15"], ["100.7"], ["1.41825", "0.0016"]], [["0.612"], ["318.15"], ["100.7"], ["1.41676", "0.0016"]], [["0.612"], ["323.15"], ["100.7"], ["1.41527", "0.0016"]], [["0.6957"], ["293.15"], ["100.7"], ["1.42421", "0.0017"]], [["0.6957"], ["298.15"], ["100.7"], ["1.42284", "0.0017"]], [["0.6957"], ["303.15"], ["100.7"], ["1.42161", "0.0017"]], [["0.6957"], ["308.15"], ["100.7"], ["1.42018", "0.0017"]], [["0.6957"], ["313.15"], ["100.7"], ["1.41865", "0.0017"]], [["0.6957"], ["318.15"], ["100.7"], ["1.41712", "0.0017"]], [["0.6957"], ["323.15"], ["100.7"], ["1.41559", "0.0017"]], [["0.7754"], ["293.15"], ["100.7"], ["1.42432", "0.0017"]], [["0.7754"], ["298.15"], ["100.7"], ["1.42306", "0.0017"]], [["0.7754"], ["303.15"], ["100.7"], ["1.42189", "0.0017"]], [["0.7754"], ["308.15"], ["100.7"], ["1.42042", "0.0017"]], [["0.7754"], ["313.15"], ["100.7"], ["1.41915", "0.0017"]], [["0.7754"], ["318.15"], ["100.7"], ["1.41788", "0.0017"]], [["0.7754"], ["323.15"], ["100.7"], ["1.41661", "0.0017"]], [["0.8991"], ["293.15"], ["100.7"], ["1.42436", "0.0017"]], [["0.8991"], ["298.15"], ["100.7"], ["1.42329", "0.0017"]], [["0.8991"], ["303.15"], ["100.7"], ["1.42202", "0.0017"]], [["0.8991"], ["308.15"], ["100.7"], ["1.42085", "0.0017"]], [["0.8991"], ["313.15"], ["100.7"], ["1.41958", "0.0017"]], [["0.8991"], ["318.15"], ["100.7"], ["1.41831", "0.0017"]], [["0.8991"], ["323.15"], ["100.7"], ["1.41704", "0.0017"]], [["1"], ["293.15"], ["100.7"], ["1.42441", "0.0017"]], [["1"], ["298.15"], ["100.7"], ["1.42312", "0.0017"]], [["1"], ["303.15"], ["100.7"], ["1.42171", "0.0017"]], [["1"], ["308.15"], ["100.7"], ["1.42029", "0.0017"]], [["1"], ["313.15"], ["100.7"], ["1.41888", "0.0017"]], [["1"], ["318.15"], ["100.7"], ["1.4175", "0.0017"]], [["1"], ["323.15"], ["100.7"], ["1.41601", "0.0017"]]], "solvent": null, "footer": "", "expmeth": "Standard Abbe refractometry", "ref": {"title": "Investigation on thermophysical and excess properties of binary mixtures of imidazolium based ionic liquids at temperatures (293.15 to 323.15) K: III [Cnmim][PF6] (n = 4, 6, 8) + THF", "full": "Vaid, Z.; More, U.; Ijardar, S. P.; Malek, N. I. (2015) J. Chem. Thermodyn. 86, 143-153."}, "constr": [], "phases": ["Liquid"]}