{"constr": [], "ref": {"full": "Vatascin, E.; Dohnal, V. (2015) J. Chem. Thermodyn. 89, 169-176.", "title": "Thermophysical properties of aqueous solutions of the 1-ethyl-3-methylimidazolium tricyanomethanide ionic liquid"}, "phases": ["Liquid"], "components": [{"name": "1-ethyl-3-methyl-1H-imidazolium tricyanomethanide", "formula": "C<SUB>10</SUB>H<SUB>11</SUB>N<SUB>5</SUB>", "mw": "201.23", "idout": "AAmkSk", "sample": [["Source:", "commercial source"], ["Initial purification:", "stated by supplier"], ["Initial purity:", "99.5 mass %"], ["Final purification:", "Karl Fischer titration"], ["Final purity:", "0.0116 water mass %(dried by vacuum heating)"]]}], "title": "Refraction, surface tension, and speed of sound: Refractive index (Na D-line)", "dhead": [["Pressure, kPa", null], ["Temperature, K", null], ["Refractive index (Na D-line)", "Liquid"]], "data": [[["100"], ["298.15"], ["1.51227", "0.00036"]]], "solvent": null, "footer": "", "expmeth": "Standard Abbe refractometry"}