{"title": "Refraction, surface tension, and speed of sound: Refractive index (Na D-line)", "components": [{"formula": "C<SUB>10</SUB>H<SUB>18</SUB>N<SUB>2</SUB>O<SUB>2</SUB>", "name": "1-butyl-3-methylimidazolium acetate", "mw": "198.27", "idout": "AAmGQS", "sample": [["Source:", "commercial source"], ["Initial purification:", "stated by supplier"], ["Initial purity:", "95 mass %"], ["Final purification:", "Karl Fischer titration"], ["Final purity:", "0.04 water mass %(de-gassed by evacuation)"]]}, {"idout": "AAYsHq", "mw": "129.21", "name": "N-(.beta.-aminoethyl)piperazine)", "formula": "C<SUB>6</SUB>H<SUB>15</SUB>N<SUB>3</SUB>", "sample": [["Source:", "commercial source"], ["Purification:", "stated by supplier"], ["Purity:", "99 mass %"]]}, {"sample": [["Source:", "commercial source"], ["Purification:", "estimated by the compiler"], ["Purity:", "99.8 mass %(fractional distillation)"]], "mw": "18.02", "idout": "AADYJk", "name": "water", "formula": "H<SUB>2</SUB>O"}], "dhead": [["Temperature, K", null], ["MolaLity of 1-butyl-3-methylimidazolium acetate, mol/kg", "Liquid"], ["MolaLity of N-(.beta.-aminoethyl)piperazine), mol/kg", "Liquid"], ["Pressure, kPa", null], ["Refractive index (Na D-line)", "Liquid"]], "footer": "", "data": [[["298.15"], ["2"], ["0"], ["101"], ["1.3795", "0.002"]], [["298.15"], ["2"], ["1"], ["101"], ["1.3943", "0.002"]], [["298.15"], ["2.25"], ["0"], ["101"], ["1.3836", "0.002"]], [["298.15"], ["2.25"], ["0.75"], ["101"], ["1.3937", "0.002"]], [["298.15"], ["2.5"], ["0"], ["101"], ["1.3873", "0.0021"]], [["298.15"], ["2.5"], ["0.5"], ["101"], ["1.3936", "0.0021"]], [["303.15"], ["2"], ["0"], ["101"], ["1.3784", "0.002"]], [["303.15"], ["2"], ["1"], ["101"], ["1.3933", "0.002"]], [["303.15"], ["2.25"], ["0"], ["101"], ["1.3825", "0.002"]], [["303.15"], ["2.25"], ["0.75"], ["101"], ["1.3926", "0.002"]], [["303.15"], ["2.5"], ["0"], ["101"], ["1.3862", "0.0021"]], [["303.15"], ["2.5"], ["0.5"], ["101"], ["1.3924", "0.0021"]], [["308.15"], ["2"], ["0"], ["101"], ["1.3775", "0.002"]], [["308.15"], ["2"], ["1"], ["101"], ["1.3921", "0.002"]], [["308.15"], ["2.25"], ["0"], ["101"], ["1.3813", "0.002"]], [["308.15"], ["2.25"], ["0.75"], ["101"], ["1.3914", "0.002"]], [["308.15"], ["2.5"], ["0"], ["101"], ["1.3852", "0.0021"]], [["308.15"], ["2.5"], ["0.5"], ["101"], ["1.391", "0.0021"]], [["313.15"], ["2"], ["0"], ["101"], ["1.3763", "0.002"]], [["313.15"], ["2"], ["1"], ["101"], ["1.3909", "0.002"]], [["313.15"], ["2.25"], ["0"], ["101"], ["1.3802", "0.002"]], [["313.15"], ["2.25"], ["0.75"], ["101"], ["1.3904", "0.002"]], [["313.15"], ["2.5"], ["0"], ["101"], ["1.384", "0.0021"]], [["313.15"], ["2.5"], ["0.5"], ["101"], ["1.39", "0.0021"]], [["318.15"], ["2"], ["0"], ["101"], ["1.3753", "0.002"]], [["318.15"], ["2"], ["1"], ["101"], ["1.3897", "0.002"]], [["318.15"], ["2.25"], ["0"], ["101"], ["1.3791", "0.002"]], [["318.15"], ["2.25"], ["0.75"], ["101"], ["1.3893", "0.002"]], [["318.15"], ["2.5"], ["0"], ["101"], ["1.3828", "0.0021"]], [["318.15"], ["2.5"], ["0.5"], ["101"], ["1.3887", "0.0021"]], [["323.15"], ["2"], ["0"], ["101"], ["1.3744", "0.002"]], [["323.15"], ["2"], ["1"], ["101"], ["1.3885", "0.002"]], [["323.15"], ["2.25"], ["0"], ["101"], ["1.378", "0.002"]], [["323.15"], ["2.25"], ["0.75"], ["101"], ["1.3881", "0.002"]], [["323.15"], ["2.5"], ["0"], ["101"], ["1.3816", "0.0021"]], [["323.15"], ["2.5"], ["0.5"], ["101"], ["1.3878", "0.0021"]], [["328.15"], ["2"], ["0"], ["101"], ["1.3734", "0.002"]], [["328.15"], ["2"], ["1"], ["101"], ["1.3872", "0.002"]], [["328.15"], ["2.25"], ["0"], ["101"], ["1.3769", "0.002"]], [["328.15"], ["2.25"], ["0.75"], ["101"], ["1.3869", "0.002"]], [["328.15"], ["2.5"], ["0"], ["101"], ["1.3803", "0.0021"]], [["328.15"], ["2.5"], ["0.5"], ["101"], ["1.3868", "0.0021"]], [["333.15"], ["2"], ["0"], ["101"], ["1.3702", "0.002"]], [["333.15"], ["2"], ["1"], ["101"], ["1.3864", "0.002"]], [["333.15"], ["2.25"], ["0"], ["101"], ["1.376", "0.002"]], [["333.15"], ["2.25"], ["0.75"], ["101"], ["1.3859", "0.002"]], [["333.15"], ["2.5"], ["0"], ["101"], ["1.3796", "0.0021"]], [["333.15"], ["2.5"], ["0.5"], ["101"], ["1.3854", "0.0021"]]], "solvent": "water", "expmeth": "Standard Abbe refractometry", "ref": {"title": "Measurements and modeling of vapor liquid equilibrium of CO2 in amine activated imidazolium ionic liquid solvents", "full": "Balchandani, Sweta; Mandal, Bishnupada; Dharaskar, Swapnil (2020) Fluid Phase Equilib. 521, 112643."}, "constr": [], "phases": ["Liquid"]}