{"ref": {"title": "Properties of ionic liquid HMIMPF6 with carbonates, ketones and alkyl acetates", "full": "Pereiro, A. B.; Tojo, E.; Rodriguez, A.; Canosa, J.; Tojo, J. (2006) J. Chem. Thermodyn. 38(6), 651-661."}, "constr": [], "phases": ["Liquid"], "components": [{"idout": "AAQxSq", "mw": "88.11", "formula": "C<SUB>4</SUB>H<SUB>8</SUB>O<SUB>2</SUB>", "name": "ethyl acetate", "sample": [["Source:", "commercial source"], ["Purification:", "stated by supplier"], ["Purity:", "99.5 mass %"], ["Purity analysis:", "de-gassed by boiling or ultrasonically;molecular sieve treatment"]]}, {"mw": "312.24", "idout": "ABICIG", "formula": "C<SUB>10</SUB>H<SUB>19</SUB>F<SUB>6</SUB>N<SUB>2</SUB>P", "name": "1-hexyl-3-methylimidazolium hexafluorophosphate", "sample": [["Source:", "synthesized by the authors"]]}], "title": "Refraction, surface tension, and speed of sound: Refractive index (Na D-line)", "dhead": [["Mole fraction of 1-hexyl-3-methylimidazolium hexafluorophosphate", "Liquid"], ["Temperature, K", null], ["Pressure, kPa", null], ["Refractive index (Na D-line)", "Liquid"]], "data": [[["0"], ["298.15"], ["101"], ["1.36977", "0.00087"]], [["0.0585"], ["298.15"], ["101"], ["1.37943", "0.00088"]], [["0.1018"], ["298.15"], ["101"], ["1.38485", "0.00088"]], [["0.2029"], ["298.15"], ["101"], ["1.39463", "0.00091"]], [["0.3005"], ["298.15"], ["101"], ["1.40092", "0.00094"]], [["0.3997"], ["298.15"], ["101"], ["1.40541", "0.00098"]], [["0.4917"], ["298.15"], ["101"], ["1.40863", "0.001"]], [["0.5924"], ["298.15"], ["101"], ["1.4114", "0.0011"]], [["0.7028"], ["298.15"], ["101"], ["1.41357", "0.0011"]], [["0.802"], ["298.15"], ["101"], ["1.41517", "0.0012"]], [["0.8994"], ["298.15"], ["101"], ["1.41657", "0.0013"]], [["0.9477"], ["298.15"], ["101"], ["1.41713", "0.0013"]], [["1"], ["298.15"], ["101"], ["1.41787", "0.0013"]]], "solvent": null, "footer": "", "expmeth": "Standard Abbe refractometry"}