{"constr": [], "ref": {"full": "Ma, X.-X.; Wei, J.; Guan, W.; Pan, Y.; Zheng, L.; Wu, Y.; Yang, J.-Z. (2015) J. Chem. Thermodyn. 89, 51-59.", "title": "Ionic parachor and its application to pyridinium-based ionic liquids of {[Cnpy][DCA] (n = 2, 3, 4, 5, 6)}"}, "phases": ["Liquid"], "components": [{"mw": "202.26", "idout": "AAmufZ", "formula": "C<SUB>11</SUB>H<SUB>14</SUB>N<SUB>4</SUB>", "name": "1-butylpyridinium dicyanamide", "sample": [["Source:", "synthesized by the authors"], ["Purification:", "NMR (proton)"], ["Purity:", "99 mass %(dried by vacuum heating)"]]}], "title": "Refraction, surface tension, and speed of sound: Refractive index (Na D-line)", "dhead": [["Temperature, K", null], ["Pressure, kPa", null], ["Refractive index (Na D-line)", "Liquid"]], "data": [[["298.15"], ["101.325"], ["1.5345", "0.0007"]]], "solvent": null, "footer": "", "expmeth": "Standard Abbe refractometry"}