{"ref": {"title": "Ionic parachor and its application to pyridinium-based ionic liquids of {[Cnpy][DCA] (n = 2, 3, 4, 5, 6)}", "full": "Ma, X.-X.; Wei, J.; Guan, W.; Pan, Y.; Zheng, L.; Wu, Y.; Yang, J.-Z. (2015) J. Chem. Thermodyn. 89, 51-59."}, "constr": [], "phases": ["Liquid"], "components": [{"sample": [["Source:", "synthesized by the authors"], ["Purification:", "NMR (proton)"], ["Purity:", "99 mass %(dried by vacuum heating)"]], "formula": "C<SUB>9</SUB>H<SUB>10</SUB>N<SUB>4</SUB>", "name": "1-ethylpyridinium dicyanamide", "idout": "AAhaEl", "mw": "174.21"}], "title": "Refraction, surface tension, and speed of sound: Refractive index (Na D-line)", "dhead": [["Temperature, K", null], ["Pressure, kPa", null], ["Refractive index (Na D-line)", "Liquid"]], "solvent": null, "data": [[["298.15"], ["101.325"], ["1.5463", "0.0007"]]], "footer": "", "expmeth": "Standard Abbe refractometry"}