{"ref": {"title": "Volumetric, ultrasonic and spectroscopic studies of molecular interactions in binary mixtures of 1-butyl-3-methylimidazolium hexafluorophosphate with 2-propoxyethanol at temperatures from 298.15 to 323.15 K", "full": "Krishna, T. S.; Raju, K. T. S. S.; Gowrisankar, M.; Nain, A. K.; Munibhadrayya, B. (2016) J. Mol. Liq. 216, 484-495."}, "constr": [], "phases": ["Liquid"], "title": "Refraction, surface tension, and speed of sound: Refractive index (Na D-line)", "components": [{"sample": [["Source:", "commercial source"], ["Initial purification:", "stated by supplier"], ["Initial purity:", "99 mass %"], ["Final purification:", "gas chromatography;Karl Fischer titration"], ["Final purity:", "99.5 mass %;0.01 water mass %(dried in a desiccator;dried by vacuum heating)"]], "idout": "ABChJv", "mw": "284.19", "formula": "C<SUB>8</SUB>H<SUB>15</SUB>F<SUB>6</SUB>N<SUB>2</SUB>P", "name": "1-butyl-3-methylimidazolium hexafluorophosphate"}], "dhead": [["Temperature, K", null], ["Pressure, kPa", null], ["Refractive index (Na D-line)", "Liquid"]], "footer": "", "data": [[["298.15"], ["101"], ["1.40902", "0.00052"]], [["303.15"], ["101"], ["1.40746", "0.00052"]], [["308.15"], ["101"], ["1.40585", "0.0005"]], [["313.15"], ["101"], ["1.40468", "0.00047"]], [["318.15"], ["101"], ["1.40352", "0.00047"]], [["323.15"], ["101"], ["1.40243", "0.00047"]]], "solvent": null, "expmeth": "Standard Abbe refractometry"}