{"components": [{"sample": [["Source:", "commercial source"], ["Initial purification:", "stated by supplier"], ["Initial purity:", "99 mass %"], ["Final purification:", "Karl Fischer titration"], ["Final purity:", "0.015 water mass %(dried by vacuum heating)"]], "name": "1-butyl-3-methylimidazolium bis(trifluoromethylsulfonyl)imide", "formula": "C<SUB>10</SUB>H<SUB>15</SUB>F<SUB>6</SUB>N<SUB>3</SUB>O<SUB>4</SUB>S<SUB>2</SUB>", "idout": "ABchwx", "mw": "419.36"}, {"name": "dimethyl carbonate", "formula": "C<SUB>3</SUB>H<SUB>6</SUB>O<SUB>3</SUB>", "idout": "AARQqy", "mw": "90.08", "sample": [["Source:", "commercial source"], ["Initial purification:", "gas chromatography"], ["Initial purity:", "99.5 mass %"], ["Final purification:", "Karl Fischer titration"], ["Final purity:", "0.015 water mass %(dried by vacuum heating;fractional distillation)"]]}], "title": "Refraction, surface tension, and speed of sound: Refractive index (Na D-line)", "dhead": [["Temperature, K", null], ["Mole fraction of 1-butyl-3-methylimidazolium bis(trifluoromethylsulfonyl)imide", "Liquid"], ["Pressure, kPa", null], ["Refractive index (Na D-line)", "Liquid"]], "data": [[["303.15"], ["0"], ["101.3"], ["1.3648", "0.001"]], [["303.15"], ["0.0512"], ["101.3"], ["1.3757", "0.0011"]], [["303.15"], ["0.101"], ["101.3"], ["1.3844", "0.0011"]], [["303.15"], ["0.1495"], ["101.3"], ["1.3913", "0.0011"]], [["303.15"], ["0.1945"], ["101.3"], ["1.3965", "0.0011"]], [["303.15"], ["0.2994"], ["101.3"], ["1.4053", "0.0011"]], [["303.15"], ["0.3999"], ["101.3"], ["1.4106", "0.0011"]], [["303.15"], ["0.4976"], ["101.3"], ["1.4141", "0.0011"]], [["303.15"], ["0.5842"], ["101.3"], ["1.4165", "0.0011"]], [["303.15"], ["0.6886"], ["101.3"], ["1.4191", "0.0011"]], [["303.15"], ["0.7475"], ["101.3"], ["1.4204", "0.0011"]], [["303.15"], ["0.8014"], ["101.3"], ["1.4216", "0.0011"]], [["303.15"], ["0.889"], ["101.3"], ["1.4233", "0.0011"]], [["303.15"], ["0.9526"], ["101.3"], ["1.4242", "0.0011"]], [["303.15"], ["1"], ["101.3"], ["1.4245", "0.0011"]], [["308.15"], ["0"], ["101.3"], ["1.3629", "0.001"]], [["308.15"], ["0.0512"], ["101.3"], ["1.3741", "0.0011"]], [["308.15"], ["0.101"], ["101.3"], ["1.383", "0.0011"]], [["308.15"], ["0.1495"], ["101.3"], ["1.39", "0.0011"]], [["308.15"], ["0.1945"], ["101.3"], ["1.3953", "0.0011"]], [["308.15"], ["0.2994"], ["101.3"], ["1.4042", "0.0011"]], [["308.15"], ["0.3999"], ["101.3"], ["1.4095", "0.0011"]], [["308.15"], ["0.4976"], ["101.3"], ["1.4131", "0.0011"]], [["308.15"], ["0.5842"], ["101.3"], ["1.4155", "0.0011"]], [["308.15"], ["0.6886"], ["101.3"], ["1.4181", "0.0011"]], [["308.15"], ["0.7475"], ["101.3"], ["1.4195", "0.0011"]], [["308.15"], ["0.8014"], ["101.3"], ["1.4207", "0.0011"]], [["308.15"], ["0.889"], ["101.3"], ["1.4223", "0.0011"]], [["308.15"], ["0.9526"], ["101.3"], ["1.423", "0.0011"]], [["308.15"], ["1"], ["101.3"], ["1.4231", "0.0011"]], [["313.15"], ["0"], ["101.3"], ["1.3626", "0.001"]], [["313.15"], ["0.0512"], ["101.3"], ["1.3744", "0.0011"]], [["313.15"], ["0.101"], ["101.3"], ["1.3836", "0.0011"]], [["313.15"], ["0.1495"], ["101.3"], ["1.3907", "0.0011"]], [["313.15"], ["0.1945"], ["101.3"], ["1.3959", "0.0011"]], [["313.15"], ["0.2994"], ["101.3"], ["1.4042", "0.0011"]], [["313.15"], ["0.3999"], ["101.3"], ["1.4089", "0.0011"]], [["313.15"], ["0.4976"], ["101.3"], ["1.4119", "0.0011"]], [["313.15"], ["0.5842"], ["101.3"], ["1.414", "0.0011"]], [["313.15"], ["0.6886"], ["101.3"], ["1.4166", "0.0011"]], [["313.15"], ["0.7475"], ["101.3"], ["1.418", "0.0011"]], [["313.15"], ["0.8014"], ["101.3"], ["1.4193", "0.0011"]], [["313.15"], ["0.889"], ["101.3"], ["1.4208", "0.0011"]], [["313.15"], ["0.9526"], ["101.3"], ["1.4213", "0.0011"]], [["313.15"], ["1"], ["101.3"], ["1.421", "0.0011"]], [["318.15"], ["0"], ["101.3"], ["1.3601", "0.001"]], [["318.15"], ["0.0512"], ["101.3"], ["1.3724", "0.0011"]], [["318.15"], ["0.101"], ["101.3"], ["1.3819", "0.0011"]], [["318.15"], ["0.1495"], ["101.3"], ["1.3892", "0.0011"]], [["318.15"], ["0.1945"], ["101.3"], ["1.3946", "0.0011"]], [["318.15"], ["0.2994"], ["101.3"], ["1.403", "0.0011"]], [["318.15"], ["0.3999"], ["101.3"], ["1.4077", "0.0011"]], [["318.15"], ["0.4976"], ["101.3"], ["1.4107", "0.0011"]], [["318.15"], ["0.5842"], ["101.3"], ["1.4128", "0.0011"]], [["318.15"], ["0.6886"], ["101.3"], ["1.4154", "0.0011"]], [["318.15"], ["0.7475"], ["101.3"], ["1.4168", "0.0011"]], [["318.15"], ["0.8014"], ["101.3"], ["1.4181", "0.0011"]], [["318.15"], ["0.889"], ["101.3"], ["1.4196", "0.0011"]], [["318.15"], ["0.9526"], ["101.3"], ["1.4199", "0.0011"]], [["318.15"], ["1"], ["101.3"], ["1.4195", "0.0011"]], [["323.15"], ["0"], ["101.3"], ["1.3586", "0.001"]], [["323.15"], ["0.0512"], ["101.3"], ["1.3719", "0.0011"]], [["323.15"], ["0.101"], ["101.3"], ["1.3817", "0.0011"]], [["323.15"], ["0.1495"], ["101.3"], ["1.3893", "0.0011"]], [["323.15"], ["0.1945"], ["101.3"], ["1.3948", "0.0011"]], [["323.15"], ["0.2994"], ["101.3"], ["1.4033", "0.0011"]], [["323.15"], ["0.3999"], ["101.3"], ["1.4078", "0.0011"]], [["323.15"], ["0.4976"], ["101.3"], ["1.4106", "0.0011"]], [["323.15"], ["0.5842"], ["101.3"], ["1.4126", "0.0011"]], [["323.15"], ["0.6886"], ["101.3"], ["1.4149", "0.0011"]], [["323.15"], ["0.7475"], ["101.3"], ["1.4162", "0.0011"]], [["323.15"], ["0.8014"], ["101.3"], ["1.4172", "0.0011"]], [["323.15"], ["0.889"], ["101.3"], ["1.4185", "0.0011"]], [["323.15"], ["0.9526"], ["101.3"], ["1.4183", "0.0011"]], [["323.15"], ["1"], ["101.3"], ["1.4173", "0.0011"]]], "solvent": null, "footer": "", "expmeth": "Standard Abbe refractometry", "constr": [], "ref": {"title": "Investigation of solute-solvent interactions in {1-butyl-3-methyl imidazoliumBis(trifluoromethylsulfonyl)imide + dimethylcarbonate} mixture using physicochemical properties", "full": "Rao, V. S.; Reddy, M. S.; Nayeem, S. M.; Raju, K. T. S. S.; Krishna, K. B. M.; Babu, B. H. (2017) J. Chem. Thermodyn. 115, 133-147."}, "phases": ["Liquid"]}