{"dhead": [["Temperature, K", null], ["Pressure, kPa", null], ["Refractive index (Na D-line)", "Liquid"]], "components": [{"name": "1-butylpyridinium trifluoromethanesulfonate", "formula": "C<SUB>10</SUB>H<SUB>14</SUB>F<SUB>3</SUB>NO<SUB>3</SUB>S", "mw": "285.28", "idout": "ABCsXe", "sample": [["Source:", "commercial source"], ["Initial purification:", "stated by supplier"], ["Initial purity:", "99 % (basis not specified)"], ["Final purification:", "Karl Fischer titration"], ["Final purity:", "0.05 water mass %(dried by vacuum heating)"]]}], "title": "Refraction, surface tension, and speed of sound: Refractive index (Na D-line)", "expmeth": "Standard Abbe refractometry", "data": [[["298.15"], ["101.325"], ["1.45819", "0.00037"]], [["300.65"], ["101.325"], ["1.45759", "0.00037"]], [["303.15"], ["101.325"], ["1.45687", "0.00037"]], [["305.65"], ["101.325"], ["1.45618", "0.00037"]], [["308.15"], ["101.325"], ["1.4555", "0.00037"]], [["310.65"], ["101.325"], ["1.4548", "0.00037"]], [["313.15"], ["101.325"], ["1.45412", "0.00037"]], [["315.65"], ["101.325"], ["1.45341", "0.00037"]], [["318.15"], ["101.325"], ["1.4527", "0.00037"]], [["320.65"], ["101.325"], ["1.45181", "0.00037"]], [["323.15"], ["101.325"], ["1.45111", "0.00037"]], [["325.65"], ["101.325"], ["1.45045", "0.00037"]], [["328.15"], ["101.325"], ["1.44976", "0.00037"]], [["330.65"], ["101.325"], ["1.44907", "0.00037"]], [["333.15"], ["101.325"], ["1.44839", "0.00037"]], [["335.65"], ["101.325"], ["1.44778", "0.00037"]], [["338.15"], ["101.325"], ["1.4471", "0.00037"]]], "solvent": null, "footer": "", "ref": {"full": "Bandres, I.; Royo, F. M.; Gascon, I.; Castro, M.; Lafuente, C. (2010) J. Phys. Chem. B 114, 3601-3607.", "title": "Anion Influence on Thermophysical Properties of Ionic Liquids: 1-Butylpyridinium Tetrafluoroborate and 1-Butylpyridinium Triflate"}, "constr": [], "phases": ["Liquid"]}