{"components": [{"sample": [["Source:", "commercial source"], ["Purification:", "stated by supplier"], ["Purity:", "98 mass %"], ["Purity analysis:", "de-gassed by boiling or ultrasonically;dried by vacuum heating"]], "idout": "AAwHNg", "mw": "250.31", "formula": "C<SUB>9</SUB>H<SUB>18</SUB>N<SUB>2</SUB>O<SUB>4</SUB>S", "name": "1-butyl-3-methylimidazolium methyl sulfate"}], "title": "Refraction, surface tension, and speed of sound: Refractive index (Na D-line)", "dhead": [["Temperature, K", null], ["Pressure, kPa", null], ["Refractive index (Na D-line)", "Liquid"]], "data": [[["298.15"], ["101.325"], ["1.47948", "0.00082"]]], "solvent": null, "footer": "", "expmeth": "Standard Abbe refractometry", "constr": [], "ref": {"title": "Liquid Liquid Equilibria for Mixtures of Hexadecane and Ethanol with Imidazolium-Based Ionic Liquids", "full": "Ram, N. M.; Bahadur, I.; Letcher, T. M.; Naidoo, P.; Ramjugernath, D. (2015) J. Solution Chem. 44, 593-605."}, "phases": ["Liquid"]}