{"components": [{"mw": "324.21", "idout": "ABKSFZ", "formula": "C<SUB>15</SUB>H<SUB>29</SUB>BF<SUB>4</SUB>N<SUB>2</SUB>", "name": "1-decyl-3-ethylimidazolium tetrafluoroborate", "sample": [["Source:", "synthesized by the authors"], ["Purification:", "estimation;ion-selective electrode"], ["Purity:", "97 mass %;0.69 halide impurity mass %(dried by vacuum heating;solvent extraction;fractional distillation)"]]}], "title": "Refraction, surface tension, and speed of sound: Refractive index (Na D-line)", "dhead": [["Temperature, K", null], ["Pressure, kPa", null], ["Refractive index (Na D-line)", "Liquid"]], "solvent": null, "data": [[["298.1"], ["101.325"], ["1.4376", "0.0009"]]], "footer": "", "expmeth": "Standard Abbe refractometry", "constr": [], "ref": {"title": "A comparison study on the properties of 1,3-dialkylimidazolium tetrafluoroborate salts prepared by halogen-free and traditional method", "full": "Wang, R.; Qi, X.; Liu, S.; He, Y.; Deng, Y. (2016) J. Mol. Liq. 221, 339-345."}, "phases": ["Liquid"]}