{"constr": [], "ref": {"title": "Thermophysical Properties of Ammonium-Based Bis{(trifluoromethyl)sulfonyl}imide Ionic Liquids: Volumetric and Transport Properties", "full": "Machanova, K.; Boisset, A.; Sedlakova, Z.; Anouti, M.; Bendova, M.; Jacquemin, J. (2012) J. Chem. Eng. Data 57(8), 2227-2235."}, "phases": ["Liquid"], "components": [{"mw": "466.50", "idout": "ABlkEe", "name": "triethylhexylammonium bis((trifluoromethyl)sulfonyl)imide", "formula": "C<SUB>14</SUB>H<SUB>28</SUB>F<SUB>6</SUB>N<SUB>2</SUB>O<SUB>4</SUB>S<SUB>2</SUB>", "sample": [["Source:", "commercial source"], ["Purification:", "Karl Fischer titration;NMR (proton)"], ["Purity:", "0.0001 water mass %;99.5 mass %(dried by vacuum heating)"]]}], "title": "Refraction, surface tension, and speed of sound: Refractive index (Na D-line)", "dhead": [["Temperature, K", null], ["Pressure, kPa", null], ["Refractive index (Na D-line)", "Liquid"]], "data": [[["298.15"], ["101.325"], ["1.42599", "0.0007"]]], "solvent": null, "footer": "", "expmeth": "Standard Abbe refractometry"}