{"constr": [], "ref": {"title": "Comparative study of physical properties of binary mixtures of halogen free ionic liquids with alcohols", "full": "Alkhaldi, K. H. A. E.; Al-Jimaz, A. S.; AlTuwaim, M. S. (2017) J. Chem. Thermodyn. 110, 175-185."}, "phases": ["Liquid"], "dhead": [["Temperature, K", null], ["Mole fraction of 1,3-dimethylimidazolium methylsulfate", "Liquid"], ["Pressure, kPa", null], ["Refractive index (Na D-line)", "Liquid"]], "components": [{"mw": "88.15", "idout": "AAQxal", "name": "pentan-1-ol", "formula": "C<SUB>5</SUB>H<SUB>12</SUB>O", "sample": [["Source:", "commercial source"], ["Initial purification:", "stated by supplier"], ["Initial purity:", "99.8 mass %"], ["Final purification:", "Karl Fischer titration"], ["Final purity:", "0.0015 water mass %"]]}, {"sample": [["Source:", "commercial source"], ["Initial purification:", "stated by supplier"], ["Initial purity:", "97 mass %"], ["Final purification:", "Karl Fischer titration"], ["Final purity:", "0.0620 water mass %"]], "name": "1,3-dimethylimidazolium methylsulfate", "formula": "C<SUB>6</SUB>H<SUB>12</SUB>N<SUB>2</SUB>O<SUB>4</SUB>S", "mw": "208.23", "idout": "AAoCnc"}], "title": "Refraction, surface tension, and speed of sound: Refractive index (Na D-line)", "expmeth": "Standard Abbe refractometry", "data": [[["298"], ["0"], ["101.3"], ["1.408", "0.01"]], [["298"], ["0.1"], ["101.3"], ["1.417", "0.01"]], [["298"], ["0.35"], ["101.3"], ["1.439", "0.01"]], [["298"], ["0.54"], ["101.3"], ["1.454", "0.01"]], [["298"], ["0.661"], ["101.3"], ["1.463", "0.01"]], [["298"], ["0.79"], ["101.3"], ["1.471", "0.01"]], [["298"], ["0.931"], ["101.3"], ["1.479", "0.01"]], [["298"], ["1"], ["101.3"], ["1.483", "0.01"]], [["303"], ["0"], ["101.3"], ["1.407", "0.01"]], [["303"], ["0.1"], ["101.3"], ["1.416", "0.01"]], [["303"], ["0.35"], ["101.3"], ["1.438", "0.01"]], [["303"], ["0.54"], ["101.3"], ["1.452", "0.01"]], [["303"], ["0.661"], ["101.3"], ["1.461", "0.01"]], [["303"], ["0.79"], ["101.3"], ["1.469", "0.01"]], [["303"], ["0.931"], ["101.3"], ["1.477", "0.01"]], [["303"], ["1"], ["101.3"], ["1.481", "0.01"]], [["308"], ["0"], ["101.3"], ["1.406", "0.01"]], [["308"], ["0.1"], ["101.3"], ["1.414", "0.01"]], [["308"], ["0.35"], ["101.3"], ["1.436", "0.01"]], [["308"], ["0.54"], ["101.3"], ["1.451", "0.01"]], [["308"], ["0.661"], ["101.3"], ["1.459", "0.01"]], [["308"], ["0.79"], ["101.3"], ["1.467", "0.01"]], [["308"], ["0.931"], ["101.3"], ["1.476", "0.01"]], [["308"], ["1"], ["101.3"], ["1.48", "0.01"]], [["313"], ["0"], ["101.3"], ["1.404", "0.01"]], [["313"], ["0.1"], ["101.3"], ["1.412", "0.01"]], [["313"], ["0.35"], ["101.3"], ["1.433", "0.01"]], [["313"], ["0.54"], ["101.3"], ["1.448", "0.01"]], [["313"], ["0.661"], ["101.3"], ["1.456", "0.01"]], [["313"], ["0.79"], ["101.3"], ["1.465", "0.01"]], [["313"], ["0.931"], ["101.3"], ["1.474", "0.01"]], [["313"], ["1"], ["101.3"], ["1.479", "0.01"]]], "solvent": null, "footer": ""}