{"constr": [], "ref": {"full": "Gomez, E.; Calvar, N.; Dominguez, A.; Macedo, E. A. (2010) J. Chem. Thermodyn. 42(11), 1324-1329.", "title": "Synthesis and temperature dependence of physical properties of four pyridinium-based ionic liquids: Influence of the size of the cation "}, "phases": ["Liquid"], "title": "Refraction, surface tension, and speed of sound: Refractive index (Na D-line)", "components": [{"name": "2-ethyl-1-methylpyridinium methyl sulfate", "formula": "C<SUB>9</SUB>H<SUB>15</SUB>NO<SUB>4</SUB>S", "idout": "AAsslm", "mw": "233.28", "sample": [["Source:", "synthesized by the authors"], ["Purification:", "estimated by the compiler;Karl Fischer titration"], ["Purity:", "98 mass %;0.08 water mass %(dried by oven heating)"]]}], "dhead": [["Temperature, K", null], ["Pressure, kPa", null], ["Refractive index (Na D-line)", "Liquid"]], "footer": "", "data": [[["293.15"], ["101.325"], ["1.52031", "0.00051"]], [["298.15"], ["101.325"], ["1.51902", "0.00051"]], [["303.15"], ["101.325"], ["1.5177", "0.00051"]], [["308.15"], ["101.325"], ["1.5164", "0.00051"]], [["313.15"], ["101.325"], ["1.51508", "0.00051"]], [["318.15"], ["101.325"], ["1.51374", "0.00051"]], [["323.15"], ["101.325"], ["1.51245", "0.00051"]], [["328.15"], ["101.325"], ["1.51115", "0.00051"]], [["333.15"], ["101.325"], ["1.50982", "0.00051"]], [["338.15"], ["101.325"], ["1.50852", "0.00051"]], [["343.15"], ["101.325"], ["1.50722", "0.00051"]]], "solvent": null, "expmeth": "Standard Abbe refractometry"}