{"dhead": [["Temperature, K", null], ["Pressure, kPa", null], ["Refractive index (Na D-line)", "Liquid mixture 1"]], "components": [{"sample": [["Source:", "commercial source"], ["Purification:", "stated by supplier"], ["Purity:", "99.5 % (basis not specified)"], ["Purity analysis:", "none used"]], "formula": "C<SUB>4</SUB>H<SUB>10</SUB>O", "name": "butan-2-ol", "mw": "74.12", "idout": "AAONLE"}, {"mw": "254.08", "idout": "AAwscj", "name": "1-hexyl-3-methylimidazolium tetrafluoroborate", "formula": "C<SUB>10</SUB>H<SUB>19</SUB>BF<SUB>4</SUB>N<SUB>2</SUB>", "sample": [["Source:", "commercial source"], ["Purity analysis:", "dried in a desiccator;dried by vacuum heating"]]}], "title": "Refraction, surface tension, and speed of sound: Refractive index (Na D-line)", "expmeth": "minimum beam deflection method", "data": [[["293.58"], ["101.325"], ["1.39496", "0.00055"]], [["296.17"], ["101.325"], ["1.39404", "0.00055"]], [["298.2"], ["101.325"], ["1.39371", "0.00055"]], [["299.69"], ["101.325"], ["1.39355", "0.00055"]], [["300.65"], ["101.325"], ["1.39355", "0.00055"]], [["301.43"], ["101.325"], ["1.39368", "0.00055"]], [["301.87"], ["101.325"], ["1.39385", "0.00055"]], [["301.98"], ["101.325"], ["1.39394", "0.00055"]], [["302.37"], ["101.325"], ["1.39434", "0.00055"]], [["302.56"], ["101.325"], ["1.39454", "0.00055"]], [["302.69"], ["101.325"], ["1.39474", "0.00055"]], [["302.8"], ["101.325"], ["1.39495", "0.00055"]], [["302.89"], ["101.325"], ["1.39527", "0.00055"]], [["302.93"], ["101.325"], ["1.39548", "0.00055"]], [["302.98"], ["101.325"], ["1.39569", "0.00055"]], [["303.02"], ["101.325"], ["1.39591", "0.00056"]], [["303.04"], ["101.325"], ["1.39635", "0.00059"]]], "solvent": null, "footer": "", "ref": {"title": "The liquid liquid coexistence of binary mixtures of the room temperature ionic liquid 1-methyl-3-hexylimidazolium tetrafluoroborate with alcohols", "full": "Wagner, M.; Stanga, O.; Schroer, W. (2004) Phys. Chem. Chem. Phys. 6(18), 4421-4431."}, "constr": [], "phases": ["Liquid mixture 1", "Liquid mixture 2"]}