{"constr": [], "ref": {"full": "Gonzalez, E. J.; Dominguez, A.; Macedo, E. A. (2012) J. Chem. Eng. Data 57(8), 2165-2176.", "title": "Article  Physical and Excess Properties of Eight Binary Mixtures Containing Water and Ionic Liquids"}, "phases": ["Liquid"], "components": [{"name": "water", "formula": "H<SUB>2</SUB>O", "mw": "18.02", "idout": "AADYJk", "sample": [["Source:", "commercial source"], ["Purification:", "estimated by the compiler"], ["Purity:", "99.9 mass %"]]}, {"sample": [["Source:", "synthesized by the authors"], ["Initial purification:", "NMR (proton)"], ["Initial purity:", "99 mass %"], ["Final purification:", "Karl Fischer titration"], ["Final purity:", "0.07 water mass %(dried by vacuum heating)"]], "mw": "261.34", "idout": "AAyNkY", "name": "1,2-diethylpyridinium ethylsulfate", "formula": "C<SUB>11</SUB>H<SUB>19</SUB>NO<SUB>4</SUB>S"}], "title": "Refraction, surface tension, and speed of sound: Refractive index (Na D-line)", "dhead": [["Temperature, K", null], ["Mole fraction of water", "Liquid"], ["Pressure, kPa", null], ["Refractive index (Na D-line)", "Liquid"]], "data": [[["288.15"], ["0"], ["101"], ["1.51631", "0.00053"]], [["288.15"], ["0.0987"], ["101"], ["1.51478", "0.00052"]], [["288.15"], ["0.1089"], ["101"], ["1.51458", "0.00052"]], [["288.15"], ["0.2048"], ["101"], ["1.51266", "0.00051"]], [["288.15"], ["0.3037"], ["101"], ["1.51023", "0.0005"]], [["288.15"], ["0.3979"], ["101"], ["1.50723", "0.00049"]], [["288.15"], ["0.4922"], ["101"], ["1.50325", "0.00047"]], [["288.15"], ["0.6018"], ["101"], ["1.49668", "0.00044"]], [["288.15"], ["0.7084"], ["101"], ["1.48656", "0.00041"]], [["288.15"], ["0.8029"], ["101"], ["1.47121", "0.00048"]], [["288.15"], ["0.8984"], ["101"], ["1.43938", "0.00063"]], [["288.15"], ["0.9493"], ["101"], ["1.4043", "0.001"]], [["288.15"], ["1"], ["101"], ["1.33349", "0.00041"]], [["298.15"], ["0"], ["101"], ["1.5135", "0.00053"]], [["298.15"], ["0.0987"], ["101"], ["1.51196", "0.00052"]], [["298.15"], ["0.1089"], ["101"], ["1.51176", "0.00052"]], [["298.15"], ["0.2048"], ["101"], ["1.50984", "0.00052"]], [["298.15"], ["0.3037"], ["101"], ["1.50743", "0.00051"]], [["298.15"], ["0.3979"], ["101"], ["1.5044", "0.00051"]], [["298.15"], ["0.4922"], ["101"], ["1.50042", "0.0005"]], [["298.15"], ["0.6018"], ["101"], ["1.49381", "0.0005"]], [["298.15"], ["0.7084"], ["101"], ["1.48367", "0.0005"]], [["298.15"], ["0.8029"], ["101"], ["1.46831", "0.00051"]], [["298.15"], ["0.8984"], ["101"], ["1.43661", "0.00049"]], [["298.15"], ["0.9493"], ["101"], ["1.40198", "0.00046"]], [["298.15"], ["1"], ["101"], ["1.33255", "0.00042"]], [["308.15"], ["0"], ["101"], ["1.51067", "0.00053"]], [["308.15"], ["0.0987"], ["101"], ["1.50914", "0.00052"]], [["308.15"], ["0.1089"], ["101"], ["1.50896", "0.00052"]], [["308.15"], ["0.2048"], ["101"], ["1.50705", "0.00052"]], [["308.15"], ["0.3037"], ["101"], ["1.50461", "0.00052"]], [["308.15"], ["0.3979"], ["101"], ["1.50156", "0.00053"]], [["308.15"], ["0.4922"], ["101"], ["1.49759", "0.00054"]], [["308.15"], ["0.6018"], ["101"], ["1.49094", "0.00058"]], [["308.15"], ["0.7084"], ["101"], ["1.48071", "0.00067"]], [["308.15"], ["0.8029"], ["101"], ["1.46515", "0.00093"]], [["308.15"], ["0.8984"], ["101"], ["1.43375", "0.0011"]], [["308.15"], ["0.9493"], ["101"], ["1.40013", "0.0014"]], [["308.15"], ["1"], ["101"], ["1.33131", "0.00042"]]], "solvent": null, "footer": "", "expmeth": "Standard Abbe refractometry"}