{"constr": [], "ref": {"title": "Density, Viscosity, and Refractive Index Properties for the Binary  Mixtures of n-Butylammonium Acetate Ionic Liquid + Alkanols at  Several Temperatures", "full": "Xu, Y. J.; Yao, J.; Wang, C.; Li, H. (2012) J. Chem. Eng. Data 57(2), 298-308."}, "phases": ["Liquid"], "components": [{"mw": "74.12", "idout": "AAONVE", "formula": "C<SUB>4</SUB>H<SUB>10</SUB>O", "name": "butan-1-ol", "sample": [["Source:", "commercial source"], ["Purification:", "estimated by the compiler"], ["Purity:", "99 % (basis not specified)"]]}, {"sample": [["Source:", "synthesized by the authors"], ["Purification:", "Karl Fischer titration;NMR (proton)"], ["Purity:", "0.02 water mass %;99 % (basis not specified)"]], "mw": "133.19", "idout": "AAZfnG", "formula": "C<SUB>6</SUB>H<SUB>15</SUB>NO<SUB>2</SUB>", "name": "butylammonium acetate"}], "title": "Refraction, surface tension, and speed of sound: Refractive index (Na D-line)", "dhead": [["Temperature, K", null], ["Mole fraction of butylammonium acetate", "Liquid"], ["Pressure, kPa", null], ["Refractive index (Na D-line)", "Liquid"]], "data": [[["298.15"], ["0.029"], ["101.3"], ["1.3999", "0.0011"]], [["298.15"], ["0.0583"], ["101.3"], ["1.4023", "0.0011"]], [["298.15"], ["0.1003"], ["101.3"], ["1.4053", "0.0011"]], [["298.15"], ["0.1981"], ["101.3"], ["1.4115", "0.0011"]], [["298.15"], ["0.2981"], ["101.3"], ["1.417", "0.0011"]], [["298.15"], ["0.399"], ["101.3"], ["1.4217", "0.0011"]], [["298.15"], ["0.497"], ["101.3"], ["1.4256", "0.0011"]], [["298.15"], ["0.6489"], ["101.3"], ["1.4314", "0.0011"]], [["298.15"], ["0.7984"], ["101.3"], ["1.4366", "0.0011"]], [["298.15"], ["0.9003"], ["101.3"], ["1.4399", "0.0011"]]], "solvent": null, "footer": "", "expmeth": "Standard Abbe refractometry"}