{"title": "Refraction, surface tension, and speed of sound: Refractive index (Na D-line)", "components": [{"mw": "236.29", "idout": "AAtWDT", "formula": "C<SUB>8</SUB>H<SUB>16</SUB>N<SUB>2</SUB>O<SUB>4</SUB>S", "name": "1-ethyl-3-methylimidazolium ethyl sulfate", "sample": [["Source:", "synthesized by the authors"], ["Purification:", "Karl Fischer titration"], ["Purity:", "0.0148 water mass %"]]}], "dhead": [["Temperature, K", null], ["Pressure, kPa", null], ["Refractive index (Na D-line)", "Liquid"]], "footer": "", "data": [[["298.15"], ["101.325"], ["1.47903", "0.0012"]]], "solvent": null, "expmeth": "Standard Abbe refractometry", "ref": {"full": "Alonso, L.; Arce, A.; Francisco, M.; Soto, A. (2008) Fluid Phase Equilib. 270(1-2), 97-102.", "title": "Thiophene separation from aliphatic hydrocarbons using the 1-ethyl-3-methylimidazolium ethylsulfate ionic liquid"}, "constr": [], "phases": ["Liquid"]}