{"constr": [], "ref": {"title": "Article  Physical and Excess Properties of Eight Binary Mixtures Containing Water and Ionic Liquids", "full": "Gonzalez, E. J.; Dominguez, A.; Macedo, E. A. (2012) J. Chem. Eng. Data 57(8), 2165-2176."}, "phases": ["Liquid"], "dhead": [["Temperature, K", null], ["Pressure, kPa", null], ["Refractive index (Na D-line)", "Liquid"]], "components": [{"name": "1-butyl-3-methylimidazolium dicyanamide", "formula": "C<SUB>10</SUB>H<SUB>15</SUB>N<SUB>5</SUB>", "idout": "AAnYjG", "mw": "205.26", "sample": [["Source:", "commercial source"], ["Purification:", "NMR (proton)"], ["Initial purity:", "98 mass %"], ["Final purity:", "0.124 water mass %(dried by vacuum heating)"]]}], "title": "Refraction, surface tension, and speed of sound: Refractive index (Na D-line)", "expmeth": "Standard Abbe refractometry", "data": [[["288.15"], ["101"], ["1.51213", "0.00065"]], [["288.15"], ["101.325"], ["1.51213", "0.00065"]], [["298.15"], ["101"], ["1.50893", "0.00065"]], [["298.15"], ["101.325"], ["1.50893", "0.00065"]], [["308.15"], ["101"], ["1.50578", "0.00065"]], [["308.15"], ["101.325"], ["1.50578", "0.00065"]]], "solvent": null, "footer": ""}