{"constr": [], "ref": {"title": "(Liquid + liquid) equilibria for mixtures of dodecane and ethanol with alkylsulfate-based ionic liquids", "full": "Ram, N. M.; Naidoo, P.; Letcher, T. M.; Ramjugernath, D. (2015) J. Chem. Thermodyn. 81, 95-100."}, "phases": ["Liquid"], "components": [{"formula": "C<SUB>9</SUB>H<SUB>18</SUB>N<SUB>2</SUB>O<SUB>4</SUB>S", "name": "1-butyl-3-methylimidazolium methyl sulfate", "mw": "250.31", "idout": "AAwHNg", "sample": [["Source:", "commercial source"], ["Initial purification:", "stated by supplier"], ["Initial purity:", "98 mass %"], ["Final purification:", "Karl Fischer titration"], ["Final purity:", "0.04 water mass %(de-gassed by boiling or ultrasonically)"]]}], "title": "Refraction, surface tension, and speed of sound: Refractive index (Na D-line)", "dhead": [["Temperature, K", null], ["Pressure, kPa", null], ["Refractive index (Na D-line)", "Liquid"]], "data": [[["298.15"], ["101.325"], ["1.47948", "0.00053"]]], "solvent": null, "footer": "", "expmeth": "Standard Abbe refractometry"}