{"constr": [], "ref": {"full": "Seoane, R. G.; Corderi, S.; Gomez, E.; Calvar, N.; Gonzalez, E. J.; Macedo, E. A.; Dominguez, A. (2012) Ind. Eng. Chem. Res. 51, 2492-2504.", "title": "Temperature Dependence and Structural Influence on the Thermophysical Properties of Eleven Commercial Ionic Liquids"}, "phases": ["Liquid"], "components": [{"formula": "C<SUB>11</SUB>H<SUB>14</SUB>F<SUB>6</SUB>N<SUB>2</SUB>O<SUB>4</SUB>S<SUB>2</SUB>", "name": "3-methyl-1-propylpyridinium bis(trifluoromethylsulfonyl)imide", "mw": "416.35", "idout": "ABcDdV", "sample": [["Source:", "commercial source"], ["Purification:", "stated by supplier"], ["Initial purity:", "99 mass %"], ["Final purity:", "0.009 water mass %;0.01 halide impurity mass %(dried by vacuum heating)"]]}], "title": "Refraction, surface tension, and speed of sound: Refractive index (Na D-line)", "dhead": [["Temperature, K", null], ["Pressure, kPa", null], ["Refractive index (Na D-line)", "Liquid"]], "solvent": null, "data": [[["293.15"], ["101.325"], ["1.44639", "0.00048"]], [["298.15"], ["101.325"], ["1.44485", "0.00049"]], [["303.15"], ["101.325"], ["1.44324", "0.00049"]], [["308.15"], ["101.325"], ["1.44169", "0.00048"]], [["313.15"], ["101.325"], ["1.44015", "0.00048"]], [["318.15"], ["101.325"], ["1.43862", "0.00048"]], [["323.15"], ["101.325"], ["1.43709", "0.00048"]], [["328.15"], ["101.325"], ["1.43555", "0.00048"]], [["333.15"], ["101.325"], ["1.43403", "0.00047"]], [["338.15"], ["101.325"], ["1.43259", "0.00047"]], [["343.15"], ["101.325"], ["1.4311", "0.00047"]]], "footer": "", "expmeth": "Standard Abbe refractometry"}