{"constr": [], "ref": {"full": "Pereiro, A. B.; Rodriguez, A. (2007) J. Chem. Thermodyn. 39(6), 978-989.", "title": "Study on the phase behaviour and thermodynamic properties of ionic liquids containing imidazolium cation with ethanol at several temperatures"}, "phases": ["Liquid"], "dhead": [["Temperature, K", null], ["Pressure, kPa", null], ["Refractive index (Na D-line)", "Liquid"]], "components": [{"mw": "208.23", "idout": "AAoCnc", "name": "1,3-dimethylimidazolium methylsulfate", "formula": "C<SUB>6</SUB>H<SUB>12</SUB>N<SUB>2</SUB>O<SUB>4</SUB>S", "sample": [["Source:", "commercial source"], ["Initial purification:", "stated by supplier"], ["Initial purity:", "98 mass %"], ["Final purification:", "Karl Fischer titration"], ["Final purity:", "0.03 water mass %(dried by vacuum heating)"]]}], "title": "Refraction, surface tension, and speed of sound: Refractive index (Na D-line)", "expmeth": "Standard Abbe refractometry", "solvent": null, "data": [[["293.15"], ["101.325"], ["1.48392", "0.0013"]], [["298.15"], ["101.325"], ["1.4827", "0.0013"]], [["303.15"], ["101.325"], ["1.48129", "0.0013"]]], "footer": ""}