{"components": [{"sample": [["Source:", "commercial source"], ["Purification:", "stated by supplier"], ["Purity:", "99 mass %"], ["Purity analysis:", "dried with chemical reagent;dried by vacuum heating"]], "mw": "419.36", "idout": "ABchwx", "formula": "C<SUB>10</SUB>H<SUB>15</SUB>F<SUB>6</SUB>N<SUB>3</SUB>O<SUB>4</SUB>S<SUB>2</SUB>", "name": "1-butyl-3-methylimidazolium bis(trifluoromethylsulfonyl)imide"}, {"sample": [["Source:", "commercial source"], ["Purification:", "stated by supplier"], ["Purity:", "99.9 mass %"], ["Purity analysis:", "molecular sieve treatment"]], "idout": "AAONVE", "mw": "74.12", "formula": "C<SUB>4</SUB>H<SUB>10</SUB>O", "name": "butan-1-ol"}], "title": "Refraction, surface tension, and speed of sound: Refractive index (Na D-line)", "dhead": [["Mole fraction of 1-butyl-3-methylimidazolium bis(trifluoromethylsulfonyl)imide", "Liquid"], ["Temperature, K", null], ["Pressure, kPa", null], ["Refractive index (Na D-line)", "Liquid"]], "data": [[["0"], ["286.647"], ["100"], ["1.4004", "0.0002"]], [["0"], ["287.849"], ["100"], ["1.3999", "0.0002"]], [["0"], ["288.934"], ["100"], ["1.3994", "0.0002"]], [["0"], ["290.044"], ["100"], ["1.399", "0.0002"]], [["0"], ["291.193"], ["100"], ["1.3985", "0.0002"]], [["0"], ["292.338"], ["100"], ["1.3981", "0.0002"]], [["0"], ["293.452"], ["100"], ["1.3976", "0.0002"]], [["0"], ["294.662"], ["100"], ["1.3971", "0.0002"]], [["0"], ["295.816"], ["100"], ["1.3967", "0.0002"]], [["0"], ["297.044"], ["100"], ["1.3962", "0.0002"]], [["0.065"], ["296.979"], ["100"], ["1.4017", "0.0005"]], [["0.065"], ["298.091"], ["100"], ["1.4013", "0.0004"]], [["0.065"], ["299.034"], ["100"], ["1.4009", "0.0004"]], [["0.065"], ["300.039"], ["100"], ["1.4005", "0.0004"]], [["0.065"], ["300.946"], ["100"], ["1.4001", "0.0004"]], [["0.065"], ["301.997"], ["100"], ["1.3998", "0.0004"]], [["0.065"], ["302.991"], ["100"], ["1.3994", "0.0004"]], [["0.097"], ["296.986"], ["100"], ["1.4038", "0.0004"]], [["0.097"], ["297.916"], ["100"], ["1.4034", "0.0004"]], [["0.097"], ["298.852"], ["100"], ["1.4031", "0.0004"]], [["0.097"], ["299.809"], ["100"], ["1.4027", "0.0004"]], [["0.097"], ["300.847"], ["100"], ["1.4023", "0.0005"]], [["0.097"], ["301.936"], ["100"], ["1.4019", "0.0004"]], [["0.097"], ["302.99"], ["100"], ["1.4015", "0.0004"]], [["0.104"], ["297.26"], ["100"], ["1.4041", "0.0004"]], [["0.104"], ["298.235"], ["100"], ["1.4037", "0.0004"]], [["0.104"], ["299.184"], ["100"], ["1.4034", "0.0004"]], [["0.104"], ["300.169"], ["100"], ["1.403", "0.0004"]], [["0.104"], ["301.21"], ["100"], ["1.4027", "0.0004"]], [["0.104"], ["302.154"], ["100"], ["1.4023", "0.0004"]], [["0.104"], ["303.173"], ["100"], ["1.4019", "0.0004"]], [["0.127"], ["297.581"], ["100"], ["1.4053", "0.0004"]], [["0.127"], ["298.456"], ["100"], ["1.405", "0.0004"]], [["0.127"], ["299.384"], ["100"], ["1.4046", "0.0004"]], [["0.127"], ["300.336"], ["100"], ["1.4043", "0.0004"]], [["0.127"], ["301.422"], ["100"], ["1.4039", "0.0004"]], [["0.127"], ["302.323"], ["100"], ["1.4036", "0.0004"]], [["0.127"], ["303.165"], ["100"], ["1.4033", "0.0004"]], [["0.213"], ["297.581"], ["100"], ["1.4095", "0.0003"]], [["0.213"], ["298.583"], ["100"], ["1.4092", "0.0003"]], [["0.213"], ["299.552"], ["100"], ["1.4089", "0.0004"]], [["0.213"], ["300.455"], ["100"], ["1.4086", "0.0004"]], [["0.213"], ["301.526"], ["100"], ["1.4082", "0.0004"]], [["0.213"], ["302.463"], ["100"], ["1.4078", "0.0004"]], [["0.213"], ["303.484"], ["100"], ["1.4075", "0.0003"]], [["0.271"], ["297.49"], ["100"], ["1.4118", "0.0003"]], [["0.271"], ["298.468"], ["100"], ["1.4115", "0.0003"]], [["0.271"], ["299.516"], ["100"], ["1.4111", "0.0003"]], [["0.271"], ["300.437"], ["100"], ["1.4108", "0.0003"]], [["0.271"], ["301.442"], ["100"], ["1.4105", "0.0003"]], [["0.271"], ["302.515"], ["100"], ["1.4101", "0.0003"]], [["0.271"], ["303.484"], ["100"], ["1.4098", "0.0003"]], [["0.379"], ["290.883"], ["100"], ["1.4174", "0.0004"]], [["0.379"], ["291.851"], ["100"], ["1.417", "0.0004"]], [["0.379"], ["292.876"], ["100"], ["1.4167", "0.0004"]], [["0.379"], ["293.847"], ["100"], ["1.4164", "0.0004"]], [["0.379"], ["294.782"], ["100"], ["1.4161", "0.0004"]], [["0.379"], ["295.938"], ["100"], ["1.4157", "0.0003"]], [["0.379"], ["296.824"], ["100"], ["1.4154", "0.0003"]], [["0.482"], ["290.884"], ["100"], ["1.4199", "0.0003"]], [["0.482"], ["291.831"], ["100"], ["1.4196", "0.0003"]], [["0.482"], ["292.902"], ["100"], ["1.4192", "0.0003"]], [["0.482"], ["293.845"], ["100"], ["1.4189", "0.0003"]], [["0.482"], ["294.91"], ["100"], ["1.4186", "0.0003"]], [["0.482"], ["295.969"], ["100"], ["1.4183", "0.0003"]], [["0.482"], ["296.814"], ["100"], ["1.418", "0.0003"]], [["1"], ["286.508"], ["100"], ["1.4287", "0.0003"]], [["1"], ["287.534"], ["100"], ["1.4284", "0.0003"]], [["1"], ["288.599"], ["100"], ["1.4281", "0.0003"]], [["1"], ["289.681"], ["100"], ["1.4278", "0.0003"]], [["1"], ["290.682"], ["100"], ["1.4275", "0.0003"]], [["1"], ["291.751"], ["100"], ["1.4272", "0.0003"]], [["1"], ["292.779"], ["100"], ["1.4269", "0.0003"]], [["1"], ["293.9"], ["100"], ["1.4266", "0.0003"]], [["1"], ["294.919"], ["100"], ["1.4263", "0.0003"]], [["1"], ["296.808"], ["100"], ["1.4258", "0.0003"]]], "solvent": null, "footer": "", "expmeth": "home-made device, desribed in prev.work", "ref": {"full": "Chen, Z.; Liu, D.; Bai, Y.; Yin, T.; Shen, W. (2021) J. Solution Chem. 50(3), 299-314.", "title": "Liquid-Liquid Phase Equilibria of Binary Solutions of {1-Butyl-3-methylimidazolium bis(trifluoromethylsulfonyl)imide + 1-Butanol or 2-Methyl-1-propanol}"}, "constr": [], "phases": ["Liquid"]}