{"ref": {"title": "Influence of temperature and alkyl chain length on physicochemical properties of trihexyl- and trioctylammonium based protic ionic liquids", "full": "Keshapolla, Dasthaiah; Srinivasarao, Kancharla; Gardas, Ramesh L. (2019) J. Chem. Thermodyn. 133, 170-180."}, "constr": [], "phases": ["Liquid"], "title": "Refraction, surface tension, and speed of sound: Refractive index (Na D-line)", "components": [{"sample": [["Source:", "synthesized by the authors"], ["Purification:", "Karl Fischer titration;NMR (proton)"], ["Purity:", "0.0582 water mass %;98 mass %(dried by oven heating;dried by vacuum heating)"]], "name": "trihexylammonium octanoate", "formula": "C<SUB>26</SUB>H<SUB>55</SUB>NO<SUB>2</SUB>", "mw": "413.73", "idout": "ABbddy"}], "dhead": [["Temperature, K", null], ["Pressure, kPa", null], ["Refractive index (Na D-line)", "Liquid"]], "footer": "", "data": [[["293.15"], ["101.325"], ["1.4459", "0.0014"]], [["298.15"], ["101.325"], ["1.4441", "0.0014"]], [["303.15"], ["101.325"], ["1.4419", "0.0014"]], [["308.15"], ["101.325"], ["1.4399", "0.0014"]], [["313.15"], ["101.325"], ["1.4381", "0.0014"]], [["318.15"], ["101.325"], ["1.4359", "0.0014"]], [["323.15"], ["101.325"], ["1.4341", "0.0014"]], [["328.15"], ["101.325"], ["1.4322", "0.0014"]], [["333.15"], ["101.325"], ["1.4299", "0.0014"]], [["338.15"], ["101.325"], ["1.4278", "0.0014"]], [["343.15"], ["101.325"], ["1.4258", "0.0014"]]], "solvent": null, "expmeth": "Standard Abbe refractometry"}