{"constr": [], "ref": {"title": "Surface tension and refractive index of pure and water-saturated  tetradecyltrihexylphosphonium-based ionic liquids", "full": "Almeida, H. F. D.; Lopes-da-Silva, J. A.; Freire, M. G.; Coutinho, J. A. P. (2013) J. Chem. Thermodyn. 57, 372-379."}, "phases": ["Liquid"], "components": [{"sample": [["Source:", "commercial source"], ["Purification:", "estimated by the compiler"], ["Purity:", "99 mol %(fractional distillation)"]], "idout": "AADYJk", "mw": "18.02", "formula": "H<SUB>2</SUB>O", "name": "water"}, {"idout": "ACVzmt", "mw": "655.13", "formula": "C<SUB>42</SUB>H<SUB>87</SUB>O<SUB>2</SUB>P", "name": "trihexyltetradecylphosphonium decanoate", "sample": [["Source:", "commercial source"], ["Initial purification:", "stated by supplier"], ["Initial purity:", "97 mass %"], ["Final purification:", "NMR (proton);Karl Fischer titration"], ["Final purity:", "99 mass %;0.02 water mass %(chemical reagent treatment;dried by vacuum heating)"]]}], "title": "Refraction, surface tension, and speed of sound: Refractive index (Na D-line)", "dhead": [["Temperature, K", null], ["Pressure, kPa", null], ["Weight fraction of water", "Liquid"], ["Refractive index (Na D-line)", "Liquid"]], "data": [[["298.15"], ["101"], ["0.1526"], ["1.45342", "0.00037"]], [["303.15"], ["101"], ["0.1526"], ["1.45194", "0.00037"]], [["308.15"], ["101"], ["0.1526"], ["1.45041", "0.00037"]], [["313.15"], ["101"], ["0.1526"], ["1.44877", "0.00037"]], [["318.15"], ["101"], ["0.1526"], ["1.44699", "0.00037"]], [["323.15"], ["101"], ["0.1526"], ["1.44498", "0.00037"]], [["328.15"], ["101"], ["0.1526"], ["1.4431", "0.00037"]], [["333.15"], ["101"], ["0.1526"], ["1.44129", "0.00037"]], [["338.15"], ["101"], ["0.1526"], ["1.43948", "0.00037"]], [["343.15"], ["101"], ["0.1526"], ["1.43763", "0.00037"]], [["348.15"], ["101"], ["0.1526"], ["1.43579", "0.00037"]], [["353.15"], ["101"], ["0.1526"], ["1.43397", "0.00037"]]], "solvent": null, "footer": "", "expmeth": "Standard Abbe refractometry"}