{"components": [{"sample": [["Source:", "commercial source"], ["Initial purification:", "stated by supplier"], ["Initial purity:", "98 mass %"], ["Final purification:", "Karl Fischer titration"], ["Final purity:", "0.01 water mass %(dried by vacuum heating)"]], "name": "1-ethyl-3-methylimidazolium bis((trifluoromethyl)sulfonyl)imide", "formula": "C<SUB>8</SUB>H<SUB>11</SUB>F<SUB>6</SUB>N<SUB>3</SUB>O<SUB>4</SUB>S<SUB>2</SUB>", "mw": "391.30", "idout": "ABXNZH"}], "title": "Refraction, surface tension, and speed of sound: Refractive index (Na D-line)", "dhead": [["Temperature, K", null], ["Pressure, kPa", null], ["Refractive index (Na D-line)", "Liquid"]], "data": [[["283.15"], ["101.325"], ["1.42738", "0.00063"]], [["288.15"], ["101.325"], ["1.42594", "0.00063"]], [["293.15"], ["101.325"], ["1.42451", "0.00063"]], [["298.15"], ["101.325"], ["1.42309", "0.00063"]], [["303.15"], ["101.325"], ["1.42166", "0.00063"]], [["308.15"], ["101.325"], ["1.42022", "0.00063"]], [["313.15"], ["101.325"], ["1.41881", "0.00063"]], [["318.15"], ["101.325"], ["1.4174", "0.00063"]], [["323.15"], ["101.325"], ["1.41597", "0.00063"]], [["328.15"], ["101.325"], ["1.41458", "0.00063"]], [["333.15"], ["101.325"], ["1.41319", "0.00063"]], [["338.15"], ["101.325"], ["1.41177", "0.00063"]], [["343.15"], ["101.325"], ["1.41037", "0.00063"]], [["348.15"], ["101.325"], ["1.40902", "0.00063"]], [["353.15"], ["101.325"], ["1.4076", "0.00063"]]], "solvent": null, "footer": "", "expmeth": "Standard Abbe refractometry", "constr": [], "ref": {"full": "Seki, S.; Tsuzuki, S.; Hayamizu, K.; Umebayashi, Y.; Serizawa, N.; Takei, K.; Miyashiro, H. (2012) J. Chem. Eng. Data 57(8), 2211-2216.", "title": "Comprehensive Refractive Index Property for Room-Temperature Ionic Liquids"}, "phases": ["Liquid"]}