{"constr": [], "ref": {"full": "Greaves, T. L.; Weerawardena, A.; Fong, C.; Krodkiewska, I.; Drummond, C. J. (2006) J. Phys. Chem. B 110(45), 22479-22487.", "title": "Protic Ionic Liquids: Solvents with Tunable Phase Behavior and Physicochemical  Properties"}, "phases": ["Liquid"], "title": "Refraction, surface tension, and speed of sound: Refractive index (Na D-line)", "components": [{"formula": "C<SUB>3</SUB>H<SUB>9</SUB>NO<SUB>2</SUB>", "name": "ethylammonium formate", "mw": "91.11", "idout": "AARbsW", "sample": [["Source:", "synthesized by the authors"], ["Purification:", "Karl Fischer titration"], ["Purity:", "0.38 water mass %(dried by vacuum heating)"]]}], "dhead": [["Temperature, K", null], ["Pressure, kPa", null], ["Refractive index (Na D-line)", "Liquid"]], "footer": "", "data": [[["300.1"], ["101.325"], ["1.4344", "0.0016"]]], "solvent": null, "expmeth": "Standard Abbe refractometry"}