{"ref": {"full": "Yan, Qiang; Liu, Min; Xiao, Chuanyou; Fu, Donglu; Wei, Jie; Fang, Dawei; Yang, Jiazhen (2021) J. Mol. Liq. 324, 114720.", "title": "Predicting properties of ionic liquid homologue of N-alkylpyridinium acetate"}, "constr": [], "phases": ["Liquid"], "title": "Refraction, surface tension, and speed of sound: Refractive index (Na D-line)", "components": [{"sample": [["Source:", "synthesized by the authors"], ["Initial purification:", "estimation"], ["Initial purity:", "95 mass %"], ["Final purification:", "Karl Fischer titration"], ["Final purity:", "0.7 water mass %"]], "mw": "209.29", "idout": "AAoMBG", "formula": "C<SUB>12</SUB>H<SUB>19</SUB>NO<SUB>2</SUB>", "name": "1-pentylpyridinium acetate"}], "dhead": [["Temperature, K", null], ["Pressure, kPa", null], ["Refractive index (Na D-line)", "Liquid"]], "footer": "", "data": [[["293.15"], ["101.325"], ["1.5759", "0.0041"]], [["298.15"], ["101.325"], ["1.5745", "0.0041"]], [["303.15"], ["101.325"], ["1.5731", "0.0041"]], [["308.15"], ["101.325"], ["1.5717", "0.0041"]], [["313.15"], ["101.325"], ["1.5704", "0.0041"]], [["318.15"], ["101.325"], ["1.569", "0.0041"]], [["323.15"], ["101.325"], ["1.5676", "0.0041"]], [["328.15"], ["101.325"], ["1.5663", "0.0041"]], [["333.15"], ["101.325"], ["1.565", "0.004"]], [["338.15"], ["101.325"], ["1.5637", "0.0041"]], [["343.15"], ["101.325"], ["1.5623", "0.0041"]]], "solvent": null, "expmeth": "Standard Abbe refractometry"}