{"ref": {"full": "Umapathi, R.; Attri, P.; Venkatesu, P. (2014) J. Phys. Chem. B 118, 5971-5982.", "title": "Thermophysical Properties of Aqueous Solution of Ammonium- Based Ionic Liquids"}, "constr": [], "phases": ["Liquid"], "title": "Refraction, surface tension, and speed of sound: Refractive index (Na D-line)", "components": [{"name": "trimethylammonium hydrogen sulfate", "formula": "C<SUB>3</SUB>H<SUB>11</SUB>NO<SUB>4</SUB>S", "mw": "157.18", "idout": "AAeLPm", "sample": [["Source:", "synthesized by the authors"], ["Initial purification:", "not known"], ["Initial purity:", "99 mass %"], ["Final purification:", "Karl Fischer titration"], ["Final purity:", "0.0070 water mass %"]]}], "dhead": [["Pressure, kPa", null], ["Temperature, K", null], ["Refractive index (Na D-line)", "Liquid"]], "footer": "", "data": [[["101"], ["298.15"], ["1.406", "0.001"]]], "solvent": null, "expmeth": "Standard Abbe refractometry"}