{"ref": {"full": "Patel, H.; Vaid, Z. S.; More, U. U.; Ijardar, S. P.; Malek, N. I. (2016) J. Chem. Thermodyn. 99, 40-53.", "title": "Thermophysical, acoustic and optical properties of binary mixtures of imidazolium based ionic liquids + polyethylene glycol"}, "constr": [], "phases": ["Liquid"], "title": "Refraction, surface tension, and speed of sound: Refractive index (Na D-line)", "components": [{"formula": "C<SUB>10</SUB>H<SUB>19</SUB>BrN<SUB>2</SUB>", "name": "1-hexyl-3-methyl-1H-imidazolium bromide", "mw": "247.18", "idout": "AAvbcc", "sample": [["Source:", "synthesized by the authors"], ["Initial purification:", "NMR (proton)"], ["Initial purity:", "98.5 mass %"], ["Final purification:", "Karl Fischer titration"], ["Final purity:", "0.0184 water mass %(dried by vacuum heating)"]]}], "dhead": [["Pressure, kPa", null], ["Temperature, K", null], ["Refractive index (Na D-line)", "Liquid"]], "footer": "", "data": [[["100"], ["293.15"], ["1.51183", "0.0011"]], [["100"], ["298.15"], ["1.50982", "0.0011"]], [["100"], ["303.15"], ["1.50796", "0.0011"]], [["100"], ["308.15"], ["1.50612", "0.0011"]], [["100"], ["313.15"], ["1.50427", "0.0011"]], [["100"], ["318.15"], ["1.50232", "0.0011"]], [["100"], ["323.15"], ["1.50047", "0.0011"]]], "solvent": null, "expmeth": "Standard Abbe refractometry"}