{"title": "Refraction, surface tension, and speed of sound: Refractive index (Na D-line)", "components": [{"sample": [["Source:", "commercial source"], ["Initial purification:", "stated by supplier"], ["Initial purity:", "99 mass %"], ["Final purification:", "Karl Fischer titration"], ["Final purity:", "0.0340 water mass %(dried by vacuum heating)"]], "formula": "C<SUB>6</SUB>H<SUB>11</SUB>BF<SUB>4</SUB>N<SUB>2</SUB>", "name": "1-ethyl-3-methylimidazolium tetrafluoroborate", "mw": "197.97", "idout": "AAmDom"}, {"sample": [["Source:", "commercial source"], ["Initial purification:", "stated by supplier"], ["Initial purity:", "99 mass %"], ["Final purification:", "gas chromatography;Karl Fischer titration"], ["Final purity:", "99.5 mass %;0.0440 water mass %(fractional distillation)"]], "name": "aniline", "formula": "C<SUB>6</SUB>H<SUB>7</SUB>N", "idout": "AARvIf", "mw": "93.13"}], "dhead": [["Temperature, K", null], ["Mole fraction of 1-ethyl-3-methylimidazolium tetrafluoroborate", "Liquid"], ["Pressure, kPa", null], ["Refractive index (Na D-line)", "Liquid"]], "footer": "", "data": [[["293.15"], ["0"], ["100"], ["1.58481", "0.001"]], [["293.15"], ["0.1008"], ["100"], ["1.56571", "0.0024"]], [["293.15"], ["0.2035"], ["100"], ["1.54192", "0.0024"]], [["293.15"], ["0.3059"], ["100"], ["1.52125", "0.0023"]], [["293.15"], ["0.4053"], ["100"], ["1.50001", "0.0023"]], [["293.15"], ["0.5073"], ["100"], ["1.47963", "0.0022"]], [["293.15"], ["0.6013"], ["100"], ["1.46255", "0.0019"]], [["293.15"], ["0.7046"], ["100"], ["1.44852", "0.0017"]], [["293.15"], ["0.8067"], ["100"], ["1.43589", "0.0016"]], [["293.15"], ["0.9059"], ["100"], ["1.42458", "0.0015"]], [["293.15"], ["1"], ["100"], ["1.41509", "0.0011"]], [["303.15"], ["0"], ["100"], ["1.58152", "0.001"]], [["303.15"], ["0.1008"], ["100"], ["1.56202", "0.0024"]], [["303.15"], ["0.2035"], ["100"], ["1.53814", "0.0024"]], [["303.15"], ["0.3059"], ["100"], ["1.51691", "0.0023"]], [["303.15"], ["0.4053"], ["100"], ["1.49592", "0.0023"]], [["303.15"], ["0.5073"], ["100"], ["1.47616", "0.0022"]], [["303.15"], ["0.6013"], ["100"], ["1.45885", "0.0019"]], [["303.15"], ["0.7046"], ["100"], ["1.44449", "0.0017"]], [["303.15"], ["0.8067"], ["100"], ["1.43188", "0.0016"]], [["303.15"], ["0.9059"], ["100"], ["1.42066", "0.0015"]], [["303.15"], ["1"], ["100"], ["1.41117", "0.0011"]], [["313.15"], ["0"], ["100"], ["1.57823", "0.001"]], [["313.15"], ["0.1008"], ["100"], ["1.55833", "0.0024"]], [["313.15"], ["0.2035"], ["100"], ["1.53436", "0.0024"]], [["313.15"], ["0.3059"], ["100"], ["1.51285", "0.0024"]], [["313.15"], ["0.4053"], ["100"], ["1.49183", "0.0022"]], [["313.15"], ["0.5073"], ["100"], ["1.47269", "0.0022"]], [["313.15"], ["0.6013"], ["100"], ["1.45515", "0.0019"]], [["313.15"], ["0.7046"], ["100"], ["1.44126", "0.0017"]], [["313.15"], ["0.8067"], ["100"], ["1.42857", "0.0016"]], [["313.15"], ["0.9059"], ["100"], ["1.41748", "0.0015"]], [["313.15"], ["1"], ["100"], ["1.40802", "0.0011"]], [["323.15"], ["0"], ["100"], ["1.57494", "0.001"]], [["323.15"], ["0.1008"], ["100"], ["1.55464", "0.0024"]], [["323.15"], ["0.2035"], ["100"], ["1.53058", "0.0025"]], [["323.15"], ["0.3059"], ["100"], ["1.5078", "0.0024"]], [["323.15"], ["0.4053"], ["100"], ["1.48774", "0.0022"]], [["323.15"], ["0.5073"], ["100"], ["1.46922", "0.0021"]], [["323.15"], ["0.6013"], ["100"], ["1.45245", "0.0019"]], [["323.15"], ["0.7046"], ["100"], ["1.43823", "0.0017"]], [["323.15"], ["0.8067"], ["100"], ["1.42556", "0.0016"]], [["323.15"], ["0.9059"], ["100"], ["1.41454", "0.0015"]], [["323.15"], ["1"], ["100"], ["1.40512", "0.0011"]]], "solvent": null, "expmeth": "Standard Abbe refractometry", "constr": [], "ref": {"title": "Thermodynamic and theoretical investigations on [Emim][Bf4]/[Bmim][Bf4] and aniline binary mixtures", "full": "Narsimlu, V.; Reddy, K.C. Sekara; Krishna, T. Viaya; Mohan, T. Madhu; Rao, V. Srinivasa (2019) J. Chem. Thermodyn. 139, 105891."}, "phases": ["Liquid"]}