{"expmeth": "Standard Abbe refractometry", "data": [[["0.1"], ["0.63"], ["100"], ["298.15"], ["1.4551", "0.0009"]], [["0.5"], ["3.02"], ["100"], ["298.15"], ["1.4573", "0.0009"]], [["1.01"], ["6.03"], ["100"], ["298.15"], ["1.4572", "0.0009"]], [["2"], ["12.02"], ["100"], ["298.15"], ["1.4608", "0.0009"]]], "solvent": "ethylammonium nitrate", "footer": "", "dhead": [["MolaLity of magnesium nitrate, mol/kg", "Liquid"], ["MolaLity of water, mol/kg", "Liquid"], ["Pressure, kPa", null], ["Temperature, K", null], ["Refractive index (Na D-line)", "Liquid"]], "components": [{"mw": "148.31", "idout": "AAcbys", "name": "magnesium nitrate", "formula": "MgN<SUB>2</SUB>O<SUB>6</SUB>", "sample": [["Source:", "commercial source"], ["Purification:", "estimated by the compiler"], ["Purity:", "99 mass %"]]}, {"sample": [["Purity analysis:", "unspecified"]], "formula": "H<SUB>2</SUB>O", "name": "water", "idout": "AADYJk", "mw": "18.02"}, {"name": "ethylammonium nitrate", "formula": "C<SUB>2</SUB>H<SUB>8</SUB>N<SUB>2</SUB>O<SUB>3</SUB>", "idout": "AAUohR", "mw": "108.10", "sample": [["Source:", "commercial source"], ["Purification:", "stated by supplier"], ["Purity:", "97 % (basis not specified)"]]}], "title": "Refraction, surface tension, and speed of sound: Refractive index (Na D-line)", "phases": ["Liquid"], "ref": {"full": "Vallet, P.; Bouzn-Capelo, S.; Mndez-Morales, T.; Gmez-Gonzlez, V.; Arosa, Y.; de la Fuente, R.; Lpez-Lago, E.; Rodrguez, J. R.; Gallego, L. J.; Paraj, J. J.; Salgado, J.; Turmine, M.; Segade, L.; Cabeza, O.; Varela, L. M. (2022) J. Mol. Liq. 350, 118483.", "title": "On the physical properties of mixtures of nitrate salts and protic ionic liquids"}, "constr": []}