{"constr": [], "ref": {"title": "Phase behavior of [Cnmim]Cl/Br (n=2, 4, 6, 8) +MNO3(M=Na, K, Rb, Cs) + H2O systems at 298.15 K", "full": "Li, X.; Li, S.; Zhai, Q.; Jiang, Y.; Hu, M. (2016) J. Mol. Liq. 215, 237-243."}, "phases": ["Liquid"], "components": [{"name": "sodium nitrate", "formula": "NNaO<SUB>3</SUB>", "idout": "AAQRpw", "mw": "84.99", "sample": [["Source:", "commercial source"], ["Purification:", "stated by supplier"], ["Purity:", "99 mass %"], ["Purity analysis:", "dried by vacuum heating"]]}, {"formula": "H<SUB>2</SUB>O", "name": "water", "mw": "18.02", "idout": "AADYJk", "sample": [["Purification:", "estimated by the compiler"], ["Purity:", "99.9 mass %(unspecified)"]]}, {"sample": [["Source:", "commercial source"], ["Purification:", "stated by supplier"], ["Purity:", "99 mol %"], ["Purity analysis:", "dried by vacuum heating"]], "idout": "AAsTjr", "mw": "230.78", "name": "1-methyl-3-octylimidazolium chloride", "formula": "C<SUB>12</SUB>H<SUB>23</SUB>ClN<SUB>2</SUB>"}], "title": "Refraction, surface tension, and speed of sound: Refractive index (Na D-line)", "dhead": [["Weight fraction of 1-methyl-3-octylimidazolium chloride", "Liquid"], ["Weight fraction of sodium nitrate", "Liquid"], ["Pressure, kPa", null], ["Temperature, K", null], ["Refractive index (Na D-line)", "Liquid"]], "data": [[["0"], ["0.4718"], ["101"], ["298.15"], ["1.38955", "0.00033"]], [["0.049"], ["0.3896"], ["101"], ["298.15"], ["1.39462", "0.00033"]], [["0.1096"], ["0.3165"], ["101"], ["298.15"], ["1.40029", "0.00033"]], [["0.181"], ["0.248"], ["101"], ["298.15"], ["1.40646", "0.00033"]], [["0.2602"], ["0.1891"], ["101"], ["298.15"], ["1.41315", "0.00033"]], [["0.3428"], ["0.1453"], ["101"], ["298.15"], ["1.42038", "0.00033"]], [["0.426"], ["0.1149"], ["101"], ["298.15"], ["1.42832", "0.00034"]], [["0.5102"], ["0.0914"], ["101"], ["298.15"], ["1.43568", "0.00034"]], [["0.5923"], ["0.077"], ["101"], ["298.15"], ["1.44307", "0.00035"]], [["0.6809"], ["0.0569"], ["101"], ["298.15"], ["1.45149", "0.00035"]], [["0.768"], ["0.0426"], ["101"], ["298.15"], ["1.4642", "0.00036"]]], "solvent": null, "footer": "", "expmeth": "Standard Abbe refractometry"}