{"title": "Refraction, surface tension, and speed of sound: Refractive index (Na D-line)", "components": [{"formula": "H<SUB>2</SUB>O", "name": "water", "idout": "AADYJk", "mw": "18.02", "sample": [["Source:", "commercial source"], ["Purification:", "estimated by the compiler"], ["Purity:", "99.8 mass %(fractional distillation)"]]}, {"sample": [["Source:", "synthesized by the authors"], ["Purification:", "NMR (proton)"], ["Purity:", "98 mass %(dried by vacuum heating)"]], "formula": "C<SUB>10</SUB>H<SUB>12</SUB>N<SUB>4</SUB>", "name": "1-propylpyridinium dicyanamide", "idout": "AAkKPA", "mw": "188.23"}], "dhead": [["Weight fraction of water", "Liquid"], ["Temperature, K", null], ["Pressure, kPa", null], ["Refractive index (Na D-line)", "Liquid"]], "footer": "", "data": [[["0.00205"], ["298.15"], ["100"], ["1.5403", "0.0006"]], [["0.00353"], ["298.15"], ["100"], ["1.5401", "0.0006"]], [["0.00496"], ["298.15"], ["100"], ["1.5399", "0.0006"]], [["0.00639"], ["298.15"], ["100"], ["1.5396", "0.0006"]], [["0.0079"], ["298.15"], ["100"], ["1.5393", "0.0006"]]], "solvent": null, "expmeth": "Standard Abbe refractometry", "ref": {"full": "Ma, X.-X.; Wei, J.; Guan, W.; Pan, Y.; Zheng, L.; Wu, Y.; Yang, J.-Z. (2015) J. Chem. Thermodyn. 89, 51-59.", "title": "Ionic parachor and its application to pyridinium-based ionic liquids of {[Cnpy][DCA] (n = 2, 3, 4, 5, 6)}"}, "constr": [], "phases": ["Liquid"]}