{"constr": [], "ref": {"full": "Gouveia, A.; Tome, L.; Marrucho, I. (2016) J. Chem. Eng. Data 61(1), 83-93.", "title": "Density, Viscosity, and Refractive Index of Ionic Liquid Mixtures Containing Cyano and Amino Acid-Based Anions"}, "phases": ["Liquid"], "components": [{"mw": "201.23", "idout": "AAmkSk", "formula": "C<SUB>10</SUB>H<SUB>11</SUB>N<SUB>5</SUB>", "name": "1-ethyl-3-methyl-1H-imidazolium tricyanomethanide", "sample": [["Source:", "commercial source"], ["Initial purification:", "stated by supplier"], ["Initial purity:", "98 mass %"], ["Final purification:", "not known"], ["Final purity:", "0.01 water mass %"]]}, {"name": "3-ethyl-1-methyl-1H-imidazolium L-serinate", "formula": "C<SUB>9</SUB>H<SUB>17</SUB>N<SUB>3</SUB>O<SUB>3</SUB>", "idout": "AApUki", "mw": "215.25", "sample": [["Source:", "synthesized by the authors"], ["Purification:", "Karl Fischer titration;NMR (proton)"], ["Purity:", "0.67 water mass %;95 mol %(dried by vacuum heating)"]]}], "title": "Refraction, surface tension, and speed of sound: Refractive index (Na D-line)", "dhead": [["Temperature, K", null], ["Mole fraction of 1-ethyl-3-methyl-1H-imidazolium tricyanomethanide", "Liquid"], ["Pressure, kPa", null], ["Refractive index (Na D-line)", "Liquid"]], "data": [[["293.15"], ["0"], ["101"], ["1.52699", "0.0041"]], [["293.15"], ["0.2502"], ["101"], ["1.52075", "0.0011"]], [["293.15"], ["0.5005"], ["101"], ["1.51865", "0.00078"]], [["293.15"], ["0.7497"], ["101"], ["1.51552", "0.001"]], [["293.15"], ["1"], ["101"], ["1.51454", "0.00063"]], [["298.15"], ["0"], ["101"], ["1.52565", "0.0041"]], [["298.15"], ["0.2502"], ["101"], ["1.51929", "0.0011"]], [["298.15"], ["0.5005"], ["101"], ["1.51718", "0.00078"]], [["298.15"], ["0.7497"], ["101"], ["1.5139", "0.001"]], [["298.15"], ["1"], ["101"], ["1.51286", "0.00063"]], [["303.15"], ["0"], ["101"], ["1.52429", "0.0041"]], [["303.15"], ["0.2502"], ["101"], ["1.51784", "0.0011"]], [["303.15"], ["0.5005"], ["101"], ["1.51563", "0.00078"]], [["303.15"], ["0.7497"], ["101"], ["1.51228", "0.001"]], [["303.15"], ["1"], ["101"], ["1.51114", "0.00063"]], [["308.15"], ["0"], ["101"], ["1.52294", "0.0041"]], [["308.15"], ["0.2502"], ["101"], ["1.51636", "0.0011"]], [["308.15"], ["0.5005"], ["101"], ["1.51409", "0.00078"]], [["308.15"], ["0.7497"], ["101"], ["1.51064", "0.001"]], [["308.15"], ["1"], ["101"], ["1.50938", "0.00063"]], [["313.15"], ["0"], ["101"], ["1.52159", "0.0041"]], [["313.15"], ["0.2502"], ["101"], ["1.51489", "0.0011"]], [["313.15"], ["0.5005"], ["101"], ["1.51254", "0.00078"]], [["313.15"], ["0.7497"], ["101"], ["1.50899", "0.001"]], [["313.15"], ["1"], ["101"], ["1.50765", "0.00063"]], [["318.15"], ["0"], ["101"], ["1.52022", "0.0041"]], [["318.15"], ["0.2502"], ["101"], ["1.51343", "0.0011"]], [["318.15"], ["0.5005"], ["101"], ["1.51099", "0.00078"]], [["318.15"], ["0.7497"], ["101"], ["1.50736", "0.001"]], [["318.15"], ["1"], ["101"], ["1.50595", "0.00063"]], [["323.15"], ["0"], ["101"], ["1.51887", "0.0041"]], [["323.15"], ["0.2502"], ["101"], ["1.51199", "0.0011"]], [["323.15"], ["0.5005"], ["101"], ["1.50943", "0.00078"]], [["323.15"], ["0.7497"], ["101"], ["1.50574", "0.001"]], [["323.15"], ["1"], ["101"], ["1.50419", "0.00063"]], [["328.15"], ["0"], ["101"], ["1.51755", "0.0041"]], [["328.15"], ["0.2502"], ["101"], ["1.51051", "0.0011"]], [["328.15"], ["0.5005"], ["101"], ["1.50784", "0.00078"]], [["328.15"], ["0.7497"], ["101"], ["1.50408", "0.001"]], [["328.15"], ["1"], ["101"], ["1.50255", "0.00063"]], [["333.15"], ["0"], ["101"], ["1.5162", "0.0041"]], [["333.15"], ["0.2502"], ["101"], ["1.50902", "0.0011"]], [["333.15"], ["0.5005"], ["101"], ["1.50632", "0.00078"]], [["333.15"], ["0.7497"], ["101"], ["1.50253", "0.001"]], [["333.15"], ["1"], ["101"], ["1.50087", "0.00063"]], [["338.15"], ["0"], ["101"], ["1.51486", "0.0041"]], [["338.15"], ["0.2502"], ["101"], ["1.50755", "0.0011"]], [["338.15"], ["0.5005"], ["101"], ["1.50475", "0.00078"]], [["338.15"], ["0.7497"], ["101"], ["1.50093", "0.001"]], [["338.15"], ["1"], ["101"], ["1.49921", "0.00063"]], [["343.15"], ["0"], ["101"], ["1.51353", "0.0041"]], [["343.15"], ["0.2502"], ["101"], ["1.50611", "0.0011"]], [["343.15"], ["0.5005"], ["101"], ["1.50324", "0.00078"]], [["343.15"], ["0.7497"], ["101"], ["1.49932", "0.001"]], [["343.15"], ["1"], ["101"], ["1.49757", "0.00063"]], [["348.15"], ["0"], ["101"], ["1.5122", "0.0041"]], [["348.15"], ["0.2502"], ["101"], ["1.50459", "0.0011"]], [["348.15"], ["0.5005"], ["101"], ["1.50173", "0.00078"]], [["348.15"], ["0.7497"], ["101"], ["1.49774", "0.001"]], [["348.15"], ["1"], ["101"], ["1.49593", "0.00063"]], [["353.15"], ["0"], ["101"], ["1.51084", "0.0041"]], [["353.15"], ["0.2502"], ["101"], ["1.50318", "0.0011"]], [["353.15"], ["0.5005"], ["101"], ["1.50018", "0.00078"]], [["353.15"], ["0.7497"], ["101"], ["1.49615", "0.001"]], [["353.15"], ["1"], ["101"], ["1.49429", "0.00063"]]], "solvent": null, "footer": "", "expmeth": "Standard Abbe refractometry"}