{"constr": [], "ref": {"full": "Alvarez, V. H.; Mattedi, S.; Aznar, M. (2012) Ind. Eng. Chem. Res. 51, 14543-14554.", "title": "Density, Refraction Index, and Vapor.Liquid Equilibria of  n.Methyl-2-hydroxyethylammonium Hexanoate Plus (Methyl  Acetate, Ethyl Acetate, or Propyl Acetate) at Several Temperatures"}, "phases": ["Liquid"], "components": [{"sample": [["Source:", "commercial source"], ["Initial purification:", "stated by supplier"], ["Initial purity:", "99 mass %"], ["Final purification:", "estimated by the compiler"], ["Final purity:", "99 mass %(de-gassed by boiling or ultrasonically)"]], "idout": "AAQxSq", "mw": "88.11", "formula": "C<SUB>4</SUB>H<SUB>8</SUB>O<SUB>2</SUB>", "name": "ethyl acetate"}, {"sample": [["Source:", "synthesized by the authors"], ["Purification:", "estimated by the compiler"], ["Purity:", "97 % (basis not specified)(dried by vacuum heating)"]], "idout": "AAkops", "mw": "191.27", "name": "N-methyl-2-hydroxyethylammonium hexanoate", "formula": "C<SUB>9</SUB>H<SUB>21</SUB>NO<SUB>3</SUB>"}], "title": "Refraction, surface tension, and speed of sound: Refractive index (Na D-line)", "dhead": [["Mole fraction of ethyl acetate", "Liquid"], ["Pressure, kPa", null], ["Temperature, K", null], ["Refractive index (Na D-line)", "Liquid"]], "solvent": null, "data": [[["0"], ["101"], ["288.15"], ["1.4599", "0.0014"]], [["0.0719"], ["101"], ["288.15"], ["1.4566", "0.0014"]], [["0.1039"], ["101"], ["288.15"], ["1.456", "0.0014"]], [["0.1973"], ["101"], ["288.15"], ["1.4519", "0.0013"]], [["0.3111"], ["101"], ["288.15"], ["1.4452", "0.0013"]], [["0.3986"], ["101"], ["288.15"], ["1.4405", "0.0013"]], [["0.4946"], ["101"], ["288.15"], ["1.4336", "0.0013"]], [["0.5971"], ["101"], ["288.15"], ["1.4255", "0.0013"]], [["0.7005"], ["101"], ["288.15"], ["1.4158", "0.0013"]], [["0.8031"], ["101"], ["288.15"], ["1.4041", "0.0013"]], [["0.9017"], ["101"], ["288.15"], ["1.3911", "0.0013"]], [["0.9499"], ["101"], ["288.15"], ["1.3836", "0.0013"]], [["1"], ["101"], ["288.15"], ["1.3746", "0.0013"]]], "footer": "", "expmeth": "Standard Abbe refractometry"}