{"ref": {"full": "Gonzalez, B.; Gomez, E.; Dominguez, A.; Vilas, M.; Tojo, E. (2011) J. Chem. Eng. Data 56(1), 14-20.", "title": "Physicochemical Characterization of New Sulfate Ionic Liquids"}, "constr": [], "phases": ["Liquid"], "title": "Refraction, surface tension, and speed of sound: Refractive index (Na D-line)", "components": [{"sample": [["Source:", "synthesized by the authors"], ["Purity analysis:", "dried by vacuum heating"]], "idout": "AAwlCR", "mw": "253.36", "formula": "C<SUB>10</SUB>H<SUB>23</SUB>NO<SUB>4</SUB>S", "name": "1-butyl-1-methylpyrrolidinium methyl sulfate"}], "dhead": [["Temperature, K", null], ["Pressure, kPa", null], ["Refractive index (Na D-line)", "Liquid"]], "footer": "", "data": [[["298.15"], ["101.325"], ["1.47308", "0.0011"]], [["303.15"], ["101.325"], ["1.47184", "0.0011"]], [["308.15"], ["101.325"], ["1.47054", "0.0011"]], [["313.15"], ["101.325"], ["1.46924", "0.0011"]], [["318.15"], ["101.325"], ["1.46792", "0.0011"]], [["323.15"], ["101.325"], ["1.46661", "0.0011"]], [["328.15"], ["101.325"], ["1.46536", "0.0011"]], [["333.15"], ["101.325"], ["1.46406", "0.0011"]], [["338.15"], ["101.325"], ["1.46274", "0.0011"]], [["343.15"], ["101.325"], ["1.46143", "0.0011"]]], "solvent": null, "expmeth": "Standard Abbe refractometry"}