{"constr": [], "ref": {"full": "Fernandez, L.; Ortega, J.; Palomar, J.; Toledo, F.; Marrero, E. (2015) J. Phys. Chem. B 119, 3527-3534.", "title": "Description of the Behavior of Dichloroalkanes-Containing Solutions with Three [bXmpy][BF4] Isomers, Using the Experimental Information of Thermodynamic Properties, 1H NMR Spectral and the COSMO-RS-Methodology"}, "phases": ["Liquid"], "title": "Refraction, surface tension, and speed of sound: Refractive index (Na D-line)", "components": [{"idout": "AAtevY", "mw": "237.05", "name": "1-butyl-4-methylpyridinium tetrafluoroborate", "formula": "C<SUB>10</SUB>H<SUB>16</SUB>BF<SUB>4</SUB>N", "sample": [["Source:", "commercial source"], ["Initial purification:", "stated by supplier"], ["Initial purity:", "99 % (basis not specified)"], ["Final purification:", "Karl Fischer titration"], ["Final purity:", "0.01 water mass %(de-gassed by boiling or ultrasonically)"]]}], "dhead": [["Temperature, K", null], ["Pressure, kPa", null], ["Refractive index (Na D-line)", "Liquid"]], "footer": "", "data": [[["298.15"], ["101.325"], ["1.4521", "0.0005"]], [["318.15"], ["101.325"], ["1.4472", "0.0005"]]], "solvent": null, "expmeth": "Standard Abbe refractometry"}