{"phases": ["Liquid"], "constr": [], "ref": {"title": "Ordering and Nonideality of Air-Ionic Liquid Interfaces in Surface Second Harmonic Generation", "full": "Costa, R.; Pereira, C. M.; Silva, A. F.; Brevet, P.-F.; Benichou, E. (2020) J. Phys. Chem. B 124(19), 3954-3961."}, "expmeth": "Standard Abbe refractometry", "data": [[["293"], ["101300"], ["400"], ["1.44573", "0.0007"]]], "solvent": null, "footer": "", "dhead": [["Temperature, K", null], ["Pressure, kPa", null], ["Wavelength, A", "Liquid"], ["Refractive index", "Liquid"]], "components": [{"mw": "447.41", "idout": "ABiCtA", "name": "1-hexyl-3-methylimidazolium bis[(trifluoromethyl)sulfonyl]imide", "formula": "C<SUB>12</SUB>H<SUB>19</SUB>F<SUB>6</SUB>N<SUB>3</SUB>O<SUB>4</SUB>S<SUB>2</SUB>", "sample": [["Source:", "commercial source"], ["Purification:", "stated by supplier"], ["Purity:", "99 % (basis not specified)"]]}], "title": "Refraction, surface tension, and speed of sound: Refractive index"}