{"components": [{"sample": [["Source:", "commercial source"], ["Initial purification:", "stated by supplier"], ["Initial purity:", "99.5 mass %"], ["Final purification:", "gas chromatography"], ["Final purity:", "99.8 mass %(fractional distillation)"]], "idout": "AAIsrh", "mw": "46.07", "formula": "C<SUB>2</SUB>H<SUB>6</SUB>O", "name": "ethanol"}, {"sample": [["Source:", "synthesized by the authors"], ["Purification:", "NMR (proton);Karl Fischer titration"], ["Purity:", "98 mass %;0.02 water mass %(dried by vacuum heating)"]], "mw": "183.26", "idout": "AAjMIW", "formula": "C<SUB>8</SUB>H<SUB>17</SUB>N<SUB>5</SUB>", "name": "1,1,3,3-tetramethylguanidinium imidazol-1-ide"}], "title": "Refraction, surface tension, and speed of sound: Refractive index (Na D-line)", "dhead": [["Mole fraction of 1,1,3,3-tetramethylguanidinium imidazol-1-ide", "Liquid"], ["Pressure, kPa", null], ["Temperature, K", null], ["Refractive index (Na D-line)", "Liquid"]], "data": [[["0"], ["100"], ["298.15"], ["1.3598", "0.0005"]], [["0.0483"], ["100"], ["298.15"], ["1.3799", "0.0006"]], [["0.0999"], ["100"], ["298.15"], ["1.3983", "0.0006"]], [["0.2003"], ["100"], ["298.15"], ["1.4242", "0.0006"]], [["0.3001"], ["100"], ["298.15"], ["1.4405", "0.0005"]], [["0.3999"], ["100"], ["298.15"], ["1.4547", "0.0005"]], [["0.5"], ["100"], ["298.15"], ["1.4652", "0.0006"]], [["0.643"], ["100"], ["298.15"], ["1.4762", "0.0006"]], [["0.7966"], ["100"], ["298.15"], ["1.4854", "0.0006"]], [["0.8987"], ["100"], ["298.15"], ["1.4903", "0.0006"]], [["1"], ["100"], ["298.15"], ["1.4943", "0.0006"]]], "solvent": null, "footer": "", "expmeth": "Standard Abbe refractometry", "ref": {"full": "Ye, F.; Zhu, J.; Yu, K.; Zhu, R.; Xu, Y.; Chen, J.; Chen, L. (2016) J. Chem. Thermodyn. 97, 39-47.", "title": "Physicochemical properties of binary mixtures of 1,1,3,3-tetramethylguanidine imidazolide ionic liquid with water and alcohols"}, "constr": [], "phases": ["Liquid"]}