{"ref": {"title": "Measurements of the liquid liquid phase equilibria of binary solutions of 1-methyl-3-octylimidazolium tetrafluoroborate with 1-heptanol or 2-pentanol", "full": "Zhang, X.; Cui, Z.; Yin, T.; Zheng, P.; Zhao, J. (2015) Fluid Phase Equilib. 394, 156-164."}, "constr": [], "phases": ["Liquid"], "components": [{"idout": "AAQxVB", "mw": "88.15", "formula": "C<SUB>5</SUB>H<SUB>12</SUB>O", "name": "pentan-2-ol", "sample": [["Source:", "commercial source"], ["Purification:", "stated by supplier"], ["Purity:", "99 mass %"], ["Purity analysis:", "molecular sieve treatment"]]}, {"formula": "C<SUB>12</SUB>H<SUB>23</SUB>BF<SUB>4</SUB>N<SUB>2</SUB>", "name": "1-methyl-3-octylimidazolium tetrafluoroborate", "idout": "ABCNhW", "mw": "282.13", "sample": [["Source:", "commercial source"], ["Initial purification:", "stated by supplier"], ["Initial purity:", "99 mass %"], ["Final purification:", "Karl Fischer titration"], ["Final purity:", "0.0158 water mass %(dried in a desiccator;dried by vacuum heating)"]]}], "title": "Refraction, surface tension, and speed of sound: Refractive index", "dhead": [["Temperature, K", null], ["Mole fraction of 1-methyl-3-octylimidazolium tetrafluoroborate", "Liquid"], ["Pressure, kPa", null], ["Wavelength, A", "Liquid"], ["Refractive index", "Liquid"]], "solvent": null, "data": [[["288.19"], ["0.599"], ["85"], ["632.8"], ["1.4284", "0.0003"]], [["288.804"], ["0.899"], ["85"], ["632.8"], ["1.4331", "0.0003"]], [["288.805"], ["0.798"], ["85"], ["632.8"], ["1.4316", "0.0003"]], [["288.976"], ["0.7"], ["85"], ["632.8"], ["1.4298", "0.0003"]], [["289.74"], ["0.599"], ["85"], ["632.8"], ["1.428", "0.0003"]], [["290.84"], ["0.899"], ["85"], ["632.8"], ["1.4326", "0.0003"]], [["290.844"], ["0.798"], ["85"], ["632.8"], ["1.4311", "0.0003"]], [["290.989"], ["0.7"], ["85"], ["632.8"], ["1.4293", "0.0003"]], [["291.297"], ["0.599"], ["85"], ["632.8"], ["1.4275", "0.0003"]], [["292.851"], ["0.599"], ["85"], ["632.8"], ["1.427", "0.0003"]], [["292.893"], ["0.899"], ["85"], ["632.8"], ["1.432", "0.0003"]], [["292.909"], ["0.798"], ["85"], ["632.8"], ["1.4305", "0.0003"]], [["293.053"], ["0.7"], ["85"], ["632.8"], ["1.4287", "0.0003"]], [["293.902"], ["0.4"], ["85"], ["632.8"], ["1.422", "0.0003"]], [["294.42"], ["0.599"], ["85"], ["632.8"], ["1.4265", "0.0003"]], [["294.978"], ["0.899"], ["85"], ["632.8"], ["1.4314", "0.0003"]], [["294.979"], ["0.798"], ["85"], ["632.8"], ["1.4299", "0.0003"]], [["295.135"], ["0.7"], ["85"], ["632.8"], ["1.4281", "0.0003"]], [["295.528"], ["0.099"], ["85"], ["632.8"], ["1.4101", "0.0003"]], [["295.95"], ["0.4"], ["85"], ["632.8"], ["1.4213", "0.0003"]], [["296.016"], ["0.3"], ["85"], ["632.8"], ["1.4182", "0.0003"]], [["296.016"], ["0.599"], ["85"], ["632.8"], ["1.426", "0.0003"]], [["296.129"], ["0.5"], ["85"], ["632.8"], ["1.4238", "0.0003"]], [["297.026"], ["0.899"], ["85"], ["632.8"], ["1.4308", "0.0003"]], [["297.032"], ["0.798"], ["85"], ["632.8"], ["1.4293", "0.0003"]], [["297.191"], ["0.7"], ["85"], ["632.8"], ["1.4275", "0.0003"]], [["297.569"], ["0.3"], ["85"], ["632.8"], ["1.4177", "0.0003"]], [["297.678"], ["0.5"], ["85"], ["632.8"], ["1.4233", "0.0003"]], [["297.856"], ["0.099"], ["85"], ["632.8"], ["1.4092", "0.0003"]], [["298.008"], ["0.4"], ["85"], ["632.8"], ["1.4207", "0.0003"]], [["299.087"], ["0.3"], ["85"], ["632.8"], ["1.4172", "0.0003"]], [["299.105"], ["0.899"], ["85"], ["632.8"], ["1.4303", "0.0003"]], [["299.107"], ["0.798"], ["85"], ["632.8"], ["1.4287", "0.0003"]], [["299.223"], ["0.2"], ["85"], ["632.8"], ["1.4133", "0.0003"]], [["299.224"], ["0.7"], ["85"], ["632.8"], ["1.4269", "0.0003"]], [["299.242"], ["0.5"], ["85"], ["632.8"], ["1.4229", "0.0003"]], [["299.913"], ["0.099"], ["85"], ["632.8"], ["1.4085", "0.0003"]], [["300.063"], ["0.4"], ["85"], ["632.8"], ["1.4201", "0.0003"]], [["300.657"], ["0.3"], ["85"], ["632.8"], ["1.4167", "0.0003"]], [["300.799"], ["0.2"], ["85"], ["632.8"], ["1.4128", "0.0003"]], [["300.8"], ["0.5"], ["85"], ["632.8"], ["1.4224", "0.0003"]], [["301.998"], ["0.099"], ["85"], ["632.8"], ["1.4077", "0.0003"]], [["302.137"], ["0.4"], ["85"], ["632.8"], ["1.4194", "0.0003"]], [["302.238"], ["0.3"], ["85"], ["632.8"], ["1.4162", "0.0003"]], [["302.34"], ["0.5"], ["85"], ["632.8"], ["1.4219", "0.0003"]], [["302.346"], ["0.2"], ["85"], ["632.8"], ["1.4122", "0.0003"]], [["303.797"], ["0.3"], ["85"], ["632.8"], ["1.4156", "0.0003"]], [["303.876"], ["0.2"], ["85"], ["632.8"], ["1.4117", "0.0003"]], [["304.073"], ["0.099"], ["85"], ["632.8"], ["1.4069", "0.0003"]], [["304.174"], ["0.4"], ["85"], ["632.8"], ["1.4187", "0.0003"]], [["304.174"], ["0.5"], ["85"], ["632.8"], ["1.4213", "0.0003"]], [["305.443"], ["0.2"], ["85"], ["632.8"], ["1.4111", "0.0003"]], [["306.204"], ["0.099"], ["85"], ["632.8"], ["1.4061", "0.0003"]], [["307.011"], ["0.2"], ["85"], ["632.8"], ["1.4105", "0.0003"]]], "footer": "", "expmeth": "Minimum Deviation"}