{"constr": [], "ref": {"title": "Isothermal (vapour + liquid) equilibrium and thermophysical properties for (1-butyl-3-methylimidazolium iodide + 1-butanol) binary system", "full": "Teodorescu, M. (2015) J. Chem. Thermodyn. 87, 58-64."}, "phases": ["Liquid"], "title": "Refraction, surface tension, and speed of sound: Refractive index (Na D-line)", "components": [{"sample": [["Source:", "commercial source"], ["Purification:", "stated by supplier"], ["Purity:", "99.5 mass %"], ["Purity analysis:", "molecular sieve treatment"]], "name": "butan-1-ol", "formula": "C<SUB>4</SUB>H<SUB>10</SUB>O", "idout": "AAONVE", "mw": "74.12"}, {"mw": "266.13", "idout": "AAzJkz", "formula": "C<SUB>8</SUB>H<SUB>15</SUB>IN<SUB>2</SUB>", "name": "1-butyl-3-methylimidazolium iodide", "sample": [["Source:", "commercial source"], ["Initial purification:", "stated by supplier"], ["Initial purity:", "99 mass %"], ["Final purification:", "Karl Fischer titration"], ["Final purity:", "0.07 water mass %(dried by vacuum heating)"]]}], "dhead": [["Temperature, K", null], ["Mole fraction of 1-butyl-3-methylimidazolium iodide", "Liquid"], ["Pressure, kPa", null], ["Refractive index (Na D-line)", "Liquid"]], "footer": "", "data": [[["293.15"], ["0"], ["101.22"], ["1.3992", "0.0004"]], [["293.15"], ["0.311"], ["101.22"], ["1.4864", "0.0006"]], [["293.15"], ["0.381"], ["101.22"], ["1.5007", "0.0005"]], [["293.15"], ["0.51"], ["101.22"], ["1.5237", "0.0005"]], [["293.15"], ["0.574"], ["101.22"], ["1.5339", "0.0005"]], [["293.15"], ["0.623"], ["101.22"], ["1.541", "0.0005"]], [["293.15"], ["0.802"], ["101.22"], ["1.5634", "0.0005"]], [["293.15"], ["0.85"], ["101.22"], ["1.5686", "0.0004"]], [["293.15"], ["1"], ["101.22"], ["1.5825", "0.0004"]], [["298.15"], ["0"], ["101.22"], ["1.3973", "0.0004"]], [["298.15"], ["0.108"], ["101.22"], ["1.4332", "0.0007"]], [["298.15"], ["0.171"], ["101.22"], ["1.4508", "0.0006"]], [["298.15"], ["0.311"], ["101.22"], ["1.4848", "0.0006"]], [["298.15"], ["0.381"], ["101.22"], ["1.4991", "0.0005"]], [["298.15"], ["0.51"], ["101.22"], ["1.5221", "0.0005"]], [["298.15"], ["0.574"], ["101.22"], ["1.5322", "0.0005"]], [["298.15"], ["0.623"], ["101.22"], ["1.5393", "0.0005"]], [["298.15"], ["0.802"], ["101.22"], ["1.5618", "0.0005"]], [["298.15"], ["0.85"], ["101.22"], ["1.567", "0.0004"]], [["298.15"], ["1"], ["101.22"], ["1.581", "0.0004"]], [["308.15"], ["0"], ["101.22"], ["1.3932", "0.0004"]], [["308.15"], ["0.108"], ["101.22"], ["1.4294", "0.0007"]], [["308.15"], ["0.171"], ["101.22"], ["1.4472", "0.0006"]], [["308.15"], ["0.311"], ["101.22"], ["1.4815", "0.0006"]], [["308.15"], ["0.381"], ["101.22"], ["1.4958", "0.0005"]], [["308.15"], ["0.51"], ["101.22"], ["1.5189", "0.0005"]], [["308.15"], ["0.574"], ["101.22"], ["1.5289", "0.0005"]], [["308.15"], ["0.623"], ["101.22"], ["1.5361", "0.0005"]], [["308.15"], ["0.802"], ["101.22"], ["1.5587", "0.0005"]], [["308.15"], ["0.85"], ["101.22"], ["1.5639", "0.0004"]], [["308.15"], ["1"], ["101.22"], ["1.5781", "0.0004"]]], "solvent": null, "expmeth": "Standard Abbe refractometry"}