{"expmeth": "Standard Abbe refractometry", "data": [[["298.1"], ["101.325"], ["1.4812", "0.0011"]], [["303"], ["101.325"], ["1.4797", "0.0011"]], [["308.1"], ["101.325"], ["1.4782", "0.0011"]], [["313"], ["101.325"], ["1.4768", "0.0011"]], [["318.1"], ["101.325"], ["1.4753", "0.0011"]], [["323"], ["101.325"], ["1.4739", "0.0011"]]], "solvent": null, "footer": "", "dhead": [["Temperature, K", null], ["Pressure, kPa", null], ["Refractive index (Na D-line)", "Liquid"]], "components": [{"mw": "279.95", "idout": "ABBrFv", "formula": "C<SUB>6</SUB>H<SUB>11</SUB>AlCl<SUB>4</SUB>N<SUB>2</SUB>", "name": "1-ethyl-3-methyl-1H-imidazolium tetrachloroaluminate", "sample": [["Source:", "commercial source"], ["Purification:", "stated by supplier"], ["Purity:", "95 mass %"]]}], "title": "Refraction, surface tension, and speed of sound: Refractive index (Na D-line)", "phases": ["Liquid"], "ref": {"title": "Faraday effect and refractive index of some imidazolium-based room-temperature ionic liquids and magnetic ionic liquids", "full": "Koralewski, M.; Paprzycka, M. (2023) J. Mol. Liq. 375, 121375."}, "constr": []}