{"title": "Refraction, surface tension, and speed of sound: Refractive index (Na D-line)", "components": [{"formula": "C<SUB>10</SUB>H<SUB>15</SUB>F<SUB>3</SUB>N<SUB>2</SUB>O<SUB>2</SUB>", "name": "1-butyl-3-methylimidazolium trifluoroacetate", "idout": "AAwaEi", "mw": "252.24", "sample": [["Source:", "synthesized by the authors"], ["Purification:", "estimated by the compiler"], ["Purity:", "98 mass %(dried by vacuum heating)"]]}], "dhead": [["Temperature, K", null], ["Pressure, kPa", null], ["Refractive index (Na D-line)", "Liquid"]], "footer": "", "data": [[["298.15"], ["101.325"], ["1.442", "0.0006"]]], "solvent": null, "expmeth": "Standard Abbe refractometry", "constr": [], "ref": {"full": "Chen, Z.; Huo, Y.; Long, P.; Shen, H.; Lee, J.-M. (2017) Phys. Chem. Chem. Phys. 19(7), 5389-5395.", "title": "Effects of electrostatic interaction on the properties of ionic liquids correlated with the change of free volume"}, "phases": ["Liquid"]}