{"ref": {"title": "Influence of the cation partner on levulinate ionic liquids properties", "full": "Mero, A.; Guglielmero, L.; D'Andrea, F.; Pomelli, C. S.; Guazzelli, L.; Koutsoumpos, S.; Tsonos, G.; Stavrakas, I.; Moutzouris, K.; Mezzetta, A. (2022) J. Mol. Liq. 354, 118850."}, "constr": [], "phases": ["Liquid"], "components": [{"sample": [["Source:", "synthesized by the authors"], ["Purification:", "estimated by the compiler;Karl Fischer titration"], ["Purity:", "98 mass %;0.013 water mass %(dried by vacuum heating)"]], "idout": "AAraev", "mw": "226.28", "formula": "C<SUB>11</SUB>H<SUB>18</SUB>N<SUB>2</SUB>O<SUB>3</SUB>", "name": "1-ethyl-3-methylimidazolium levulinate"}], "title": "Refraction, surface tension, and speed of sound: Refractive index", "dhead": [["Temperature, K", null], ["Pressure, kPa", null], ["Wavelength, A", "Liquid"], ["Refractive index", "Liquid"]], "data": [[["293"], ["100"], ["450"], ["1.5126", "0.0006"]], [["293"], ["100"], ["532"], ["1.5039", "0.0006"]], [["293"], ["100"], ["633"], ["1.4977", "0.0006"]], [["293"], ["100"], ["964"], ["1.4896", "0.0006"]], [["293"], ["100"], ["1551"], ["1.4862", "0.0006"]], [["353"], ["100"], ["450"], ["1.4971", "0.0006"]], [["353"], ["100"], ["532"], ["1.4886", "0.0006"]], [["353"], ["100"], ["633"], ["1.4826", "0.0006"]], [["353"], ["100"], ["964"], ["1.4746", "0.0006"]], [["353"], ["100"], ["1551"], ["1.4713", "0.0006"]], [["358.1"], ["100"], ["450"], ["1.4958", "0.0006"]], [["358.1"], ["100"], ["532"], ["1.4873", "0.0006"]], [["358.1"], ["100"], ["633"], ["1.4813", "0.0006"]], [["358.1"], ["100"], ["964"], ["1.4734", "0.0006"]], [["358.1"], ["100"], ["1551"], ["1.4701", "0.0006"]], [["363"], ["100"], ["450"], ["1.4944", "0.0006"]], [["363"], ["100"], ["532"], ["1.486", "0.0006"]], [["363"], ["100"], ["633"], ["1.48", "0.0006"]], [["363"], ["100"], ["964"], ["1.4721", "0.0006"]], [["363"], ["100"], ["1551"], ["1.4688", "0.0006"]], [["368.1"], ["100"], ["450"], ["1.4931", "0.0006"]], [["368.1"], ["100"], ["532"], ["1.4847", "0.0006"]], [["368.1"], ["100"], ["633"], ["1.4787", "0.0006"]], [["368.1"], ["100"], ["964"], ["1.4708", "0.0006"]], [["368.1"], ["100"], ["1551"], ["1.4676", "0.0006"]], [["373"], ["100"], ["450"], ["1.4918", "0.0006"]], [["373"], ["100"], ["532"], ["1.4834", "0.0006"]], [["373"], ["100"], ["633"], ["1.4775", "0.0006"]], [["373"], ["100"], ["964"], ["1.4696", "0.0006"]], [["373"], ["100"], ["1551"], ["1.4663", "0.0006"]], [["378.15"], ["100"], ["450"], ["1.4905", "0.0006"]], [["378.15"], ["100"], ["532"], ["1.4822", "0.0006"]], [["378.15"], ["100"], ["633"], ["1.4762", "0.0006"]], [["378.15"], ["100"], ["964"], ["1.4683", "0.0006"]], [["378.15"], ["100"], ["1551"], ["1.4651", "0.0006"]], [["383.1"], ["100"], ["450"], ["1.4892", "0.0006"]], [["383.1"], ["100"], ["532"], ["1.4809", "0.0006"]], [["383.1"], ["100"], ["633"], ["1.4749", "0.0006"]], [["383.1"], ["100"], ["964"], ["1.4671", "0.0006"]], [["383.1"], ["100"], ["1551"], ["1.4638", "0.0006"]], [["388.15"], ["100"], ["450"], ["1.4879", "0.0006"]], [["388.15"], ["100"], ["532"], ["1.4796", "0.0006"]], [["388.15"], ["100"], ["633"], ["1.4736", "0.0006"]], [["388.15"], ["100"], ["964"], ["1.4658", "0.0006"]], [["388.15"], ["100"], ["1551"], ["1.4626", "0.0006"]], [["393.1"], ["100"], ["450"], ["1.4866", "0.0006"]], [["393.1"], ["100"], ["532"], ["1.4783", "0.0006"]], [["393.1"], ["100"], ["633"], ["1.4724", "0.0006"]], [["393.1"], ["100"], ["964"], ["1.4646", "0.0006"]], [["393.1"], ["100"], ["1551"], ["1.4613", "0.0006"]], [["398.15"], ["100"], ["450"], ["1.4853", "0.0006"]], [["398.15"], ["100"], ["532"], ["1.477", "0.0006"]], [["398.15"], ["100"], ["633"], ["1.4711", "0.0006"]], [["398.15"], ["100"], ["964"], ["1.4633", "0.0006"]], [["398.15"], ["100"], ["1551"], ["1.4601", "0.0006"]], [["403.1"], ["100"], ["450"], ["1.484", "0.0006"]], [["403.1"], ["100"], ["532"], ["1.4757", "0.0006"]], [["403.1"], ["100"], ["633"], ["1.4698", "0.0006"]], [["403.1"], ["100"], ["964"], ["1.462", "0.0006"]], [["403.1"], ["100"], ["1551"], ["1.4588", "0.0006"]]], "solvent": null, "footer": "", "expmeth": "Dipping refractometry (monochromatic)"}