{"components": [{"name": "trimethylbenzylammonium chloride", "formula": "C<SUB>10</SUB>H<SUB>16</SUB>ClN", "mw": "185.69", "idout": "AAjkLa", "sample": [["Source:", "commercial source"], ["Purification:", "stated by supplier"], ["Purity:", "98 mass %"]]}, {"mw": "150.17", "idout": "AActxI", "formula": "C<SUB>6</SUB>H<SUB>14</SUB>O<SUB>4</SUB>", "name": "triethylene glycol", "sample": [["Source:", "commercial source"], ["Purification:", "stated by supplier"], ["Purity:", "99 mass %"]]}], "title": "Refraction, surface tension, and speed of sound: Refractive index (Na D-line)", "dhead": [["Temperature, K", null], ["Pressure, kPa", null], ["Mole fraction of trimethylbenzylammonium chloride", "Liquid"], ["Refractive index (Na D-line)", "Liquid"]], "data": [[["283.15"], ["100"], ["0.25"], ["1.4923", "0.0011"]], [["288.15"], ["100"], ["0.25"], ["1.4908", "0.0011"]], [["293.15"], ["100"], ["0.25"], ["1.4894", "0.0011"]], [["298.15"], ["100"], ["0.25"], ["1.488", "0.0011"]], [["303.15"], ["100"], ["0.25"], ["1.4865", "0.0011"]], [["308.15"], ["100"], ["0.25"], ["1.4849", "0.0011"]], [["313.15"], ["100"], ["0.25"], ["1.4836", "0.0011"]], [["318.15"], ["100"], ["0.25"], ["1.4821", "0.0011"]], [["323.15"], ["100"], ["0.25"], ["1.4807", "0.0011"]], [["328.15"], ["100"], ["0.25"], ["1.4792", "0.0011"]], [["333.15"], ["100"], ["0.25"], ["1.4778", "0.0011"]], [["338.15"], ["100"], ["0.25"], ["1.4763", "0.0011"]], [["343.15"], ["100"], ["0.25"], ["1.4749", "0.0011"]]], "solvent": null, "footer": "", "expmeth": "Standard Abbe refractometry", "ref": {"title": "Effect of Ethylene, Diethylene, and Triethylene Glycols and Glycerol on the Physicochemical Properties and Phase Behavior of Benzyltrimethyl and Benzyltributylammonium Chloride Based Deep Eutectic Solvents at 283.15-343.15 K", "full": "Basaiahgari, Anusha; Panda, Somenath; Gardas, Ramesh L. (2018) J. Chem. Eng. Data 63(7), 2613-2627."}, "constr": [], "phases": ["Liquid"]}