{"phases": ["Liquid"], "constr": [], "ref": {"full": "Froba, A. P.; Kremer, H.; Leipertz, A. (2008) J. Phys. Chem. B 112, 12420-12430.", "title": "Density, Refractive Index, Interfacial Tension, and Viscosity of Ionic Liquids [EMIM][EtSO4], [EMIM][NTf2], [EMIM][N(CN)2], and [OMA][NTf2] in Dependence on Temperature at Atmospheric Pressure"}, "expmeth": "Standard Abbe refractometry", "data": [[["283.15"], ["101.325"], ["1.4272", "0.0011"]], [["293.15"], ["101.325"], ["1.4244", "0.0011"]], [["303.15"], ["101.325"], ["1.4216", "0.0011"]], [["313.15"], ["101.325"], ["1.4186", "0.0011"]]], "solvent": null, "footer": "", "dhead": [["Temperature, K", null], ["Pressure, kPa", null], ["Refractive index (Na D-line)", "Liquid"]], "components": [{"name": "1-ethyl-3-methylimidazolium bis((trifluoromethyl)sulfonyl)imide", "formula": "C<SUB>8</SUB>H<SUB>11</SUB>F<SUB>6</SUB>N<SUB>3</SUB>O<SUB>4</SUB>S<SUB>2</SUB>", "idout": "ABXNZH", "mw": "391.30", "sample": [["Source:", "synthesized by the authors"], ["Initial purification:", "NMR (proton)"], ["Initial purity:", "99 mass %"], ["Final purification:", "Karl Fischer titration"], ["Final purity:", "0.0509 water mass %(dried by vacuum heating)"]]}], "title": "Refraction, surface tension, and speed of sound: Refractive index (Na D-line)"}