{"components": [{"name": "1-butyl-3-methylimidazolium nitrate", "formula": "C<SUB>8</SUB>H<SUB>15</SUB>N<SUB>3</SUB>O<SUB>3</SUB>", "idout": "AAmkVH", "mw": "201.23", "sample": [["Source:", "synthesized by the authors"], ["Initial purification:", "stated by supplier"], ["Initial purity:", "99.5 mass %"], ["Final purification:", "Karl Fischer titration"], ["Final purity:", "0.0318 water mass %"]]}], "title": "Refraction, surface tension, and speed of sound: Refractive index (Na D-line)", "dhead": [["Temperature, K", null], ["Pressure, kPa", null], ["Refractive index (Na D-line)", "Metastable liquid"]], "data": [[["293.1"], ["101.33"], ["1.4936", "0.01"]]], "solvent": null, "footer": "", "expmeth": "Standard Abbe refractometry", "constr": [], "ref": {"title": "Measurement and Correlation of Isobaric VLE Data for 1-Propanol + Water + 1-Butyl/Decyl-3-methylimidazole Bromide/Nitrate ILs at 101.33 kPa", "full": "Ren, Guancheng; Wang, Yulu; Xiang, Liyun; Wang, Zheng; Zhang, Yuru; Zhang, Hui; Gao, Daming (2024) J. Chem. Eng. Data 69(3), 1051-1070."}, "phases": ["Metastable liquid"]}