{"ref": {"title": "Synthesis and Thermophysical Properties of Biocompatible Cholinium-Based Amino Acid Ionic Liquids", "full": "Tao, D.-J.; Cheng, Z.; Chen, F.-F.; Li, Z.-M.; Hu, N.; Chen, X.-S. (2013) J. Chem. Eng. Data 58(6), 1542-1548."}, "constr": [], "phases": ["Liquid"], "title": "Refraction, surface tension, and speed of sound: Refractive index (Na D-line)", "components": [{"sample": [["Source:", "synthesized by the authors"], ["Purification:", "Karl Fischer titration;titration;NMR (proton)"], ["Purity:", "0.015 water mass %;0.02 halide impurity mass %;99 % (basis not specified)(dried by vacuum heating)"]], "name": "2-hydroxy-N,N,N-trimethylethanaminium glycinate", "formula": "C<SUB>7</SUB>H<SUB>18</SUB>N<SUB>2</SUB>O<SUB>3</SUB>", "idout": "AAiOjp", "mw": "178.23"}], "dhead": [["Temperature, K", null], ["Pressure, kPa", null], ["Refractive index (Na D-line)", "Liquid"]], "footer": "", "data": [[["293.15"], ["101.325"], ["1.5238", "0.0011"]], [["298.15"], ["101.325"], ["1.5224", "0.0011"]], [["303.15"], ["101.325"], ["1.5213", "0.0011"]], [["308.15"], ["101.325"], ["1.5204", "0.0011"]], [["313.15"], ["101.325"], ["1.5194", "0.0011"]], [["318.15"], ["101.325"], ["1.5182", "0.0011"]], [["323.15"], ["101.325"], ["1.5171", "0.0011"]], [["328.15"], ["101.325"], ["1.5158", "0.0011"]], [["333.15"], ["101.325"], ["1.5148", "0.0011"]], [["338.15"], ["101.325"], ["1.5137", "0.0011"]], [["343.15"], ["101.325"], ["1.5125", "0.0011"]]], "solvent": null, "expmeth": "Standard Abbe refractometry"}