{"constr": [], "ref": {"full": "Mjalli, F. S.; Al-Hajri, R.; Al-Muhtaseb, A.; Ahmed, O.; Nagaraju, M. (2016) Asia-Pac. J. Chem. Eng. 11(5), 683-694.", "title": "Novel amino acid-based ionic liquid analogues: neutral hydroxylic and sulfur-containing amino acids"}, "phases": ["Liquid"], "title": "Refraction, surface tension, and speed of sound: Refractive index (Na D-line)", "components": [{"idout": "AAUKxI", "mw": "105.09", "name": "L-serine", "formula": "C<SUB>3</SUB>H<SUB>7</SUB>NO<SUB>3</SUB>", "sample": [["Source:", "commercial source"], ["Initial purification:", "stated by supplier"], ["Initial purity:", "99 % (basis not specified)"], ["Final purification:", "Karl Fischer titration"], ["Final purity:", "0.02 water mass %(dried by vacuum heating)"]]}, {"formula": "C<SUB>16</SUB>H<SUB>36</SUB>ClN", "name": "tetrabutylammonium chloride", "idout": "ABBXWo", "mw": "277.92", "sample": [["Source:", "commercial source"], ["Initial purification:", "stated by supplier"], ["Initial purity:", "99 % (basis not specified)"], ["Final purification:", "Karl Fischer titration"], ["Final purity:", "0.02 water mass %(dried by vacuum heating)"]]}], "dhead": [["Temperature, K", null], ["Mole ratio to solvent: tetrabutylammonium chloride", "Liquid"], ["Pressure, kPa", null], ["Refractive index (Na D-line)", "Liquid"]], "footer": "", "data": [[["313.15"], ["8"], ["101"], ["1.476", "0.002"]], [["313.15"], ["9"], ["101"], ["1.476", "0.002"]], [["313.15"], ["10"], ["101"], ["1.476", "0.002"]], [["323.15"], ["8"], ["101"], ["1.473", "0.002"]], [["323.15"], ["9"], ["101"], ["1.473", "0.002"]], [["323.15"], ["10"], ["101"], ["1.473", "0.002"]], [["333.15"], ["8"], ["101"], ["1.469", "0.002"]], [["333.15"], ["9"], ["101"], ["1.469", "0.002"]], [["333.15"], ["10"], ["101"], ["1.469", "0.002"]], [["343.15"], ["8"], ["101"], ["1.466", "0.002"]], [["343.15"], ["9"], ["101"], ["1.467", "0.002"]], [["343.15"], ["10"], ["101"], ["1.466", "0.002"]], [["353.15"], ["8"], ["101"], ["1.463", "0.002"]], [["353.15"], ["9"], ["101"], ["1.464", "0.002"]], [["353.15"], ["10"], ["101"], ["1.464", "0.002"]]], "solvent": "L-serine", "expmeth": "Standard Abbe refractometry"}