{"title": "Refraction, surface tension, and speed of sound: Refractive index (Na D-line)", "components": [{"name": "water", "formula": "H<SUB>2</SUB>O", "mw": "18.02", "idout": "AADYJk", "sample": [["Source:", "commercial source"], ["Purification:", "estimated by the compiler"], ["Purity:", "99.9 mass %(fractional distillation)"]]}, {"name": "rubidium chloride", "formula": "ClRb", "mw": "120.92", "idout": "AAXNrG", "sample": [["Source:", "commercial source"], ["Purification:", "stated by supplier"], ["Purity:", "99.5 mass %"], ["Purity analysis:", "dried by vacuum heating"]]}, {"idout": "AAsTjr", "mw": "230.78", "name": "1-methyl-3-octylimidazolium chloride", "formula": "C<SUB>12</SUB>H<SUB>23</SUB>ClN<SUB>2</SUB>", "sample": [["Source:", "commercial source"], ["Purification:", "stated by supplier"], ["Purity:", "99 mass %"], ["Purity analysis:", "dried by vacuum heating"]]}], "dhead": [["Temperature, K", null], ["Weight fraction of 1-methyl-3-octylimidazolium chloride", "Liquid"], ["Weight fraction of rubidium chloride", "Liquid"], ["Pressure, kPa", null], ["Refractive index (Na D-line)", "Liquid"]], "footer": "", "data": [[["288.15"], ["0.0653"], ["0.4152"], ["101"], ["1.39358", "0.00042"]], [["288.15"], ["0.1311"], ["0.3667"], ["101"], ["1.40112", "0.00038"]], [["288.15"], ["0.2067"], ["0.3097"], ["101"], ["1.40991", "0.00035"]], [["288.15"], ["0.3071"], ["0.2309"], ["101"], ["1.41887", "0.00035"]], [["288.15"], ["0.4156"], ["0.1592"], ["101"], ["1.42895", "0.00034"]], [["288.15"], ["0.5436"], ["0.0864"], ["101"], ["1.44068", "0.00046"]], [["288.15"], ["0.6635"], ["0.0329"], ["101"], ["1.45474", "0.00055"]], [["288.15"], ["0.7737"], ["0.0077"], ["101"], ["1.47294", "0.00051"]], [["298.15"], ["0.0087"], ["0"], ["101"], ["1.33395", "0.0013"]], [["298.15"], ["0.0087"], ["0.03"], ["101"], ["1.33668", "0.0012"]], [["298.15"], ["0.0087"], ["0.06"], ["101"], ["1.33962", "0.001"]], [["298.15"], ["0.0173"], ["0"], ["101"], ["1.33536", "0.0013"]], [["298.15"], ["0.0173"], ["0.03"], ["101"], ["1.33809", "0.0011"]], [["298.15"], ["0.0175"], ["0.06"], ["101"], ["1.34111", "0.00094"]], [["298.15"], ["0.026"], ["0"], ["101"], ["1.33687", "0.0012"]], [["298.15"], ["0.026"], ["0.03"], ["101"], ["1.33966", "0.0011"]], [["298.15"], ["0.026"], ["0.06"], ["101"], ["1.34261", "0.00097"]], [["298.15"], ["0.0347"], ["0"], ["101"], ["1.33837", "0.0012"]], [["298.15"], ["0.0347"], ["0.06"], ["101"], ["1.34416", "0.00098"]], [["298.15"], ["0.0348"], ["0.03"], ["101"], ["1.34112", "0.0011"]], [["298.15"], ["0.0433"], ["0"], ["101"], ["1.33977", "0.0012"]], [["298.15"], ["0.0434"], ["0.03"], ["101"], ["1.34263", "0.0011"]], [["298.15"], ["0.0434"], ["0.06"], ["101"], ["1.34549", "0.0011"]], [["298.15"], ["0.052"], ["0.03"], ["101"], ["1.34431", "0.0011"]], [["298.15"], ["0.0521"], ["0"], ["101"], ["1.34125", "0.00083"]], [["298.15"], ["0.0521"], ["0.06"], ["101"], ["1.34698", "0.0014"]], [["298.15"], ["0.0556"], ["0.4395"], ["101"], ["1.39506", "0.00039"]], [["298.15"], ["0.0607"], ["0"], ["101"], ["1.34269", "0.001"]], [["298.15"], ["0.0607"], ["0.03"], ["101"], ["1.34561", "0.0011"]], [["298.15"], ["0.0607"], ["0.06"], ["101"], ["1.34844", "0.0011"]], [["298.15"], ["0.0694"], ["0"], ["101"], ["1.34418", "0.00096"]], [["298.15"], ["0.0694"], ["0.06"], ["101"], ["1.35002", "0.0013"]], [["298.15"], ["0.0696"], ["0.03"], ["101"], ["1.34717", "0.001"]], [["298.15"], ["0.078"], ["0"], ["101"], ["1.34559", "0.00089"]], [["298.15"], ["0.0781"], ["0.03"], ["101"], ["1.34864", "0.0011"]], [["298.15"], ["0.0781"], ["0.06"], ["101"], ["1.35139", "0.0014"]], [["298.15"], ["0.0867"], ["0"], ["101"], ["1.34703", "0.00092"]], [["298.15"], ["0.0867"], ["0.06"], ["101"], ["1.35289", "0.0012"]], [["298.15"], ["0.0868"], ["0.03"], ["101"], ["1.35005", "0.001"]], [["298.15"], ["0.1262"], ["0.3811"], ["101"], ["1.40234", "0.0004"]], [["298.15"], ["0.2049"], ["0.3195"], ["101"], ["1.41048", "0.0004"]], [["298.15"], ["0.3022"], ["0.2467"], ["101"], ["1.41908", "0.00035"]], [["298.15"], ["0.412"], ["0.1697"], ["101"], ["1.42879", "0.00045"]], [["298.15"], ["0.5387"], ["0.0949"], ["101"], ["1.44021", "0.00048"]], [["298.15"], ["0.6653"], ["0.0415"], ["101"], ["1.45395", "0.00046"]], [["298.15"], ["0.7756"], ["0.0082"], ["101"], ["1.47134", "0.00054"]], [["308.15"], ["0.0512"], ["0.4556"], ["101"], ["1.3968", "0.0004"]], [["308.15"], ["0.1149"], ["0.4044"], ["101"], ["1.40362", "0.00042"]], [["308.15"], ["0.1959"], ["0.3326"], ["101"], ["1.41105", "0.00037"]], [["308.15"], ["0.2943"], ["0.2598"], ["101"], ["1.41929", "0.00037"]], [["308.15"], ["0.421"], ["0.1792"], ["101"], ["1.42863", "0.00069"]], [["308.15"], ["0.5527"], ["0.1007"], ["101"], ["1.43974", "0.00081"]], [["308.15"], ["0.6537"], ["0.0498"], ["101"], ["1.45116", "0.00057"]], [["308.15"], ["0.7607"], ["0.0108"], ["101"], ["1.46774", "0.00053"]]], "solvent": null, "expmeth": "Standard Abbe refractometry", "constr": [], "ref": {"title": "Measurements and Correlations of the Solid Liquid Equilibrium of RbCl/CsCl + [Cnmim]Cl (n = 2, 4, 6, 8) + H2O Ternary Systems at T = (288.15, 298.15, and 308.15) K", "full": "Tang, J.; Li, S.; Zhai, Q.-G.; Jiang, Y.; Hu, M. (2014) J. Chem. Eng. Data 59(3), 726-735."}, "phases": ["Liquid"]}