{"ref": {"title": "VLE measurement of binary systems containing imidazolium ionic liquids and water or ethanol", "full": "Graczova, Elena; Steltenpohl, Pavol (2022) Fluid Phase Equilib. 556, 113400."}, "constr": [], "phases": ["Liquid"], "components": [{"mw": "260.23", "idout": "AAyCVz", "formula": "C<SUB>7</SUB>H<SUB>11</SUB>F<SUB>3</SUB>N<SUB>2</SUB>O<SUB>3</SUB>S", "name": "1-ethyl-3-methylimidazolium trifluoromethanesulfonate", "sample": [["Source:", "commercial source"], ["Purification:", "stated by supplier"], ["Purity:", "99.2 mol %"]]}], "title": "Refraction, surface tension, and speed of sound: Refractive index (Na D-line)", "dhead": [["Temperature, K", null], ["Pressure, kPa", null], ["Refractive index (Na D-line)", "Liquid"]], "data": [[["298"], ["101.325"], ["1.4354", "0.0007"]]], "solvent": null, "footer": "", "expmeth": "Standard Abbe refractometry"}