{"title": "Refraction, surface tension, and speed of sound: Refractive index (Na D-line)", "components": [{"idout": "ABXrps", "mw": "394.32", "name": "3-ethylthiazolium bis((trifluoromethyl)sulfonyl)amide", "formula": "C<SUB>7</SUB>H<SUB>8</SUB>F<SUB>6</SUB>N<SUB>2</SUB>O<SUB>4</SUB>S<SUB>3</SUB>", "sample": [["Source:", "synthesized by the authors"], ["Purification:", "estimated by the compiler"], ["Purity:", "99 mass %(dried by vacuum heating)"]]}], "dhead": [["Temperature, K", null], ["Pressure, kPa", null], ["Refractive index (Na D-line)", "Liquid"]], "footer": "", "data": [[["313.15"], ["101.325"], ["1.4419", "0.0005"]], [["323.15"], ["101.325"], ["1.4391", "0.0005"]], [["333.15"], ["101.325"], ["1.4361", "0.0005"]], [["343.15"], ["101.325"], ["1.4326", "0.0005"]], [["353.15"], ["101.325"], ["1.4297", "0.0005"]]], "solvent": null, "expmeth": "Standard Abbe refractometry", "constr": [], "ref": {"title": "Thiazolium-based ionic liquids: Synthesis, characterization and physicochemical properties", "full": "Fei, Y.; Chen, Z.; Zhang, J.; Yu, M.; Kong, J.; Wu, Z.; Cao, J.; Zhang, J. (2021) J. Mol. Liq. 342, 117553."}, "phases": ["Liquid"]}