{"title": "Refraction, surface tension, and speed of sound: Refractive index (Na D-line)", "components": [{"sample": [["Source:", "synthesized by the authors"]], "formula": "C<SUB>10</SUB>H<SUB>19</SUB>F<SUB>6</SUB>N<SUB>2</SUB>P", "name": "1-hexyl-3-methylimidazolium hexafluorophosphate", "idout": "ABICIG", "mw": "312.24"}], "dhead": [["Temperature, K", null], ["Pressure, kPa", null], ["Refractive index (Na D-line)", "Liquid"]], "footer": "", "data": [[["288.15"], ["101.325"], ["1.42062", "0.0013"]], [["293.15"], ["101.325"], ["1.41923", "0.0013"]], [["298.15"], ["101.325"], ["1.41787", "0.0013"]], [["303.15"], ["101.325"], ["1.41643", "0.0013"]], [["308.15"], ["101.325"], ["1.41501", "0.0013"]], [["313.15"], ["101.325"], ["1.41358", "0.0013"]], [["318.15"], ["101.325"], ["1.41215", "0.0013"]]], "solvent": null, "expmeth": "Standard Abbe refractometry", "constr": [], "ref": {"full": "Pereiro, A. B.; Tojo, E.; Rodriguez, A.; Canosa, J.; Tojo, J. (2006) J. Chem. Thermodyn. 38(6), 651-661.", "title": "Properties of ionic liquid HMIMPF6 with carbonates, ketones and alkyl acetates"}, "phases": ["Liquid"]}