{"constr": [], "ref": {"full": "Caeiro, N.; Wojtczuk, M. K.; Rodriguez, H.; Rodil, E.; Soto, A. (2022) J. Mol. Liq. 346, 118292.", "title": "Recovery of dialkylimidazolium-based ionic liquids from their mixtures with acetone or water by flash distillation"}, "phases": ["Liquid"], "title": "Refraction, surface tension, and speed of sound: Refractive index (Na D-line)", "components": [{"sample": [["Source:", "commercial source"], ["Initial purification:", "stated by supplier"], ["Initial purity:", "95 % (basis not specified)"], ["Final purification:", "Karl Fischer titration"], ["Final purity:", "0.11 water mass %(dried by vacuum heating)"]], "formula": "C<SUB>10</SUB>H<SUB>18</SUB>N<SUB>2</SUB>O<SUB>2</SUB>", "name": "1-butyl-3-methylimidazolium acetate", "idout": "AAmGQS", "mw": "198.27"}], "dhead": [["Pressure, kPa", null], ["Temperature, K", null], ["Refractive index (Na D-line)", "Liquid"]], "footer": "", "data": [[["101"], ["298.15"], ["1.4949", "0.001"]]], "solvent": null, "expmeth": "Standard Abbe refractometry"}