{"components": [{"sample": [["Source:", "commercial source"], ["Purification:", "stated by supplier"], ["Purity:", "99.0 mol %"]], "formula": "C<SUB>8</SUB>H<SUB>11</SUB>N<SUB>5</SUB>", "name": "1-ethyl-3-methylimidazolium dicyanamide", "idout": "AAiEIE", "mw": "177.21"}], "title": "Refraction, surface tension, and speed of sound: Refractive index (Na D-line)", "dhead": [["Temperature, K", null], ["Pressure, kPa", null], ["Refractive index (Na D-line)", "Liquid"]], "data": [[["298"], ["101.325"], ["1.5106", "0.0007"]]], "solvent": null, "footer": "", "expmeth": "Standard Abbe refractometry", "constr": [], "ref": {"full": "Graczova, Elena; Steltenpohl, Pavol (2022) Fluid Phase Equilib. 556, 113400.", "title": "VLE measurement of binary systems containing imidazolium ionic liquids and water or ethanol"}, "phases": ["Liquid"]}