{"constr": [], "ref": {"title": "Study of thermophysical properties of the binary mixtures of ionic liquid 1-ethyl-3-methylimidazolium ethylsulfate and 2-propoxyethanol from T = (298.15 to 328.15) K at atmospheric pressure", "full": "Srinivasa Reddy, M.; Raju, K. T. S. S.; Sreenivasa Rao, A.; Sharmila, N.; Hari Babu, B. (2016) J. Chem. Thermodyn. 101, 139-149."}, "phases": ["Liquid"], "components": [{"sample": [["Source:", "commercial source"], ["Initial purification:", "stated by supplier"], ["Initial purity:", "99 mass %"], ["Final purification:", "Karl Fischer titration"], ["Final purity:", "0.005 water mass %(dried by vacuum heating)"]], "name": "1-ethyl-3-methylimidazolium ethyl sulfate", "formula": "C<SUB>8</SUB>H<SUB>16</SUB>N<SUB>2</SUB>O<SUB>4</SUB>S", "mw": "236.29", "idout": "AAtWDT"}], "title": "Refraction, surface tension, and speed of sound: Refractive index (Na D-line)", "dhead": [["Temperature, K", null], ["Pressure, kPa", null], ["Refractive index (Na D-line)", "Liquid"]], "data": [[["298.15"], ["100"], ["1.47907", "0.002"]], [["308.15"], ["100"], ["1.47645", "0.002"]], [["318.15"], ["100"], ["1.47374", "0.002"]], [["328.15"], ["100"], ["1.47112", "0.002"]]], "solvent": null, "footer": "", "expmeth": "Standard Abbe refractometry"}