{"constr": [], "ref": {"full": "Hazrati, Nastaran; Abdouss, Majid; Beigi, Ali Akbar Miran; Pasban, Ali Asghar; Rezaei, Mahmoud (2017) J. Chem. Eng. Data 62(10), 3084-3094.", "title": "Physicochemical Properties of Long Chain Alkylated Imidazolium Based Chloride and Bis(trifluoromethanesulfonyl)imide Ionic Liquids"}, "phases": ["Liquid"], "components": [{"sample": [["Source:", "synthesized by the authors"], ["Purification:", "NMR (proton)"], ["Purity:", "99 mol %"]], "formula": "C<SUB>14</SUB>H<SUB>27</SUB>ClN<SUB>2</SUB>", "name": "1-decyl-3-methylimidazolium chloride", "idout": "AAxopW", "mw": "258.83"}], "title": "Refraction, surface tension, and speed of sound: Refractive index (Na D-line)", "dhead": [["Pressure, kPa", null], ["Temperature, K", null], ["Refractive index (Na D-line)", "Liquid"]], "solvent": null, "data": [[["100"], ["293.15"], ["1.5002", "0.0048"]], [["100"], ["298.15"], ["1.4988", "0.0054"]], [["100"], ["303.15"], ["1.4972", "0.0058"]], [["100"], ["313.15"], ["1.4937", "0.0064"]], [["100"], ["323.15"], ["1.4897", "0.0064"]], [["100"], ["333.15"], ["1.4864", "0.0068"]], [["100"], ["343.15"], ["1.4834", "0.0074"]], [["100"], ["353.15"], ["1.4806", "0.0078"]], [["100"], ["363.15"], ["1.4788", "0.009"]]], "footer": "", "expmeth": "Standard Abbe refractometry"}