{"ref": {"full": "Gouveia, A.; Tome, L.; Marrucho, I. (2016) J. Chem. Eng. Data 61(1), 83-93.", "title": "Density, Viscosity, and Refractive Index of Ionic Liquid Mixtures Containing Cyano and Amino Acid-Based Anions"}, "constr": [], "phases": ["Liquid"], "title": "Refraction, surface tension, and speed of sound: Refractive index (Na D-line)", "components": [{"formula": "C<SUB>10</SUB>H<SUB>11</SUB>N<SUB>5</SUB>", "name": "1-ethyl-3-methyl-1H-imidazolium tricyanomethanide", "mw": "201.23", "idout": "AAmkSk", "sample": [["Source:", "commercial source"], ["Initial purification:", "stated by supplier"], ["Initial purity:", "98 mass %"], ["Final purification:", "not known"], ["Final purity:", "0.01 water mass %"]]}, {"mw": "225.29", "idout": "AArQav", "formula": "C<SUB>11</SUB>H<SUB>19</SUB>N<SUB>3</SUB>O<SUB>2</SUB>", "name": "1-ethyl-3-methyl-1H-imidazolium L-prolinate", "sample": [["Source:", "synthesized by the authors"], ["Purification:", "Karl Fischer titration;NMR (proton)"], ["Purity:", "0.7 water mass %;97 mol %(dried by vacuum heating)"]]}], "dhead": [["Temperature, K", null], ["Mole fraction of 1-ethyl-3-methyl-1H-imidazolium tricyanomethanide", "Liquid"], ["Pressure, kPa", null], ["Refractive index (Na D-line)", "Liquid"]], "footer": "", "data": [[["293.15"], ["0"], ["101"], ["1.52291", "0.00069"]], [["293.15"], ["0.2501"], ["101"], ["1.52057", "0.00086"]], [["293.15"], ["0.5002"], ["101"], ["1.5191", "0.00083"]], [["293.15"], ["0.7501"], ["101"], ["1.51665", "0.00096"]], [["293.15"], ["1"], ["101"], ["1.51454", "0.00063"]], [["298.15"], ["0"], ["101"], ["1.52151", "0.00069"]], [["298.15"], ["0.2501"], ["101"], ["1.51913", "0.00086"]], [["298.15"], ["0.5002"], ["101"], ["1.5176", "0.00083"]], [["298.15"], ["0.7501"], ["101"], ["1.51508", "0.00096"]], [["298.15"], ["1"], ["101"], ["1.51286", "0.00063"]], [["303.15"], ["0"], ["101"], ["1.52009", "0.00069"]], [["303.15"], ["0.2501"], ["101"], ["1.51769", "0.00086"]], [["303.15"], ["0.5002"], ["101"], ["1.51611", "0.00083"]], [["303.15"], ["0.7501"], ["101"], ["1.51349", "0.00096"]], [["303.15"], ["1"], ["101"], ["1.51114", "0.00063"]], [["308.15"], ["0"], ["101"], ["1.5187", "0.00069"]], [["308.15"], ["0.2501"], ["101"], ["1.51622", "0.00086"]], [["308.15"], ["0.5002"], ["101"], ["1.5146", "0.00083"]], [["308.15"], ["0.7501"], ["101"], ["1.5119", "0.00096"]], [["308.15"], ["1"], ["101"], ["1.50938", "0.00063"]], [["313.15"], ["0"], ["101"], ["1.51731", "0.00069"]], [["313.15"], ["0.2501"], ["101"], ["1.51477", "0.00086"]], [["313.15"], ["0.5002"], ["101"], ["1.51306", "0.00083"]], [["313.15"], ["0.7501"], ["101"], ["1.51033", "0.00096"]], [["313.15"], ["1"], ["101"], ["1.50765", "0.00063"]], [["318.15"], ["0"], ["101"], ["1.51591", "0.00069"]], [["318.15"], ["0.2501"], ["101"], ["1.51333", "0.00086"]], [["318.15"], ["0.5002"], ["101"], ["1.51153", "0.00083"]], [["318.15"], ["0.7501"], ["101"], ["1.50875", "0.00096"]], [["318.15"], ["1"], ["101"], ["1.50595", "0.00063"]], [["323.15"], ["0"], ["101"], ["1.51454", "0.00069"]], [["323.15"], ["0.2501"], ["101"], ["1.51191", "0.00086"]], [["323.15"], ["0.5002"], ["101"], ["1.51006", "0.00083"]], [["323.15"], ["0.7501"], ["101"], ["1.50717", "0.00096"]], [["323.15"], ["1"], ["101"], ["1.50419", "0.00063"]], [["328.15"], ["0"], ["101"], ["1.51315", "0.00069"]], [["328.15"], ["0.2501"], ["101"], ["1.51046", "0.00086"]], [["328.15"], ["0.5002"], ["101"], ["1.50858", "0.00083"]], [["328.15"], ["0.7501"], ["101"], ["1.50561", "0.00096"]], [["328.15"], ["1"], ["101"], ["1.50255", "0.00063"]], [["333.15"], ["0"], ["101"], ["1.51177", "0.00069"]], [["333.15"], ["0.2501"], ["101"], ["1.50899", "0.00086"]], [["333.15"], ["0.5002"], ["101"], ["1.5071", "0.00083"]], [["333.15"], ["0.7501"], ["101"], ["1.504", "0.00096"]], [["333.15"], ["1"], ["101"], ["1.50087", "0.00063"]], [["338.15"], ["0"], ["101"], ["1.51035", "0.00069"]], [["338.15"], ["0.2501"], ["101"], ["1.50752", "0.00086"]], [["338.15"], ["0.5002"], ["101"], ["1.50564", "0.00083"]], [["338.15"], ["0.7501"], ["101"], ["1.50249", "0.00096"]], [["338.15"], ["1"], ["101"], ["1.49921", "0.00063"]], [["343.15"], ["0"], ["101"], ["1.50897", "0.00069"]], [["343.15"], ["0.2501"], ["101"], ["1.50611", "0.00086"]], [["343.15"], ["0.5002"], ["101"], ["1.50412", "0.00083"]], [["343.15"], ["0.7501"], ["101"], ["1.50096", "0.00096"]], [["343.15"], ["1"], ["101"], ["1.49757", "0.00063"]], [["348.15"], ["0"], ["101"], ["1.50757", "0.00069"]], [["348.15"], ["0.2501"], ["101"], ["1.50461", "0.00086"]], [["348.15"], ["0.5002"], ["101"], ["1.50269", "0.00083"]], [["348.15"], ["0.7501"], ["101"], ["1.49941", "0.00096"]], [["348.15"], ["1"], ["101"], ["1.49593", "0.00063"]], [["353.15"], ["0"], ["101"], ["1.5062", "0.00069"]], [["353.15"], ["0.2501"], ["101"], ["1.50319", "0.00086"]], [["353.15"], ["0.5002"], ["101"], ["1.50126", "0.00083"]], [["353.15"], ["0.7501"], ["101"], ["1.49791", "0.00096"]], [["353.15"], ["1"], ["101"], ["1.49429", "0.00063"]]], "solvent": null, "expmeth": "Standard Abbe refractometry"}