{"constr": [], "ref": {"full": "Dzida, M.; Musial, M.; Zorebski, E.; Zorebski, M.; Jacquemin, J.; Goodrich, P.; Wojnarowska, Z.; Paluch, M. (2019) J. Mol. Liq. 278, 401-412.", "title": "Comparative study of effect of alkyl chain length on thermophysical characteristics of five N-alkylpyridinium bis(trifluoromethylsulfonyl)imides with selected imidazolium-based ionic liquids"}, "phases": ["Liquid"], "components": [{"mw": "472.46", "idout": "ABmsed", "name": "1-octylpyridinium bis((trifluoromethyl)sulfonyl)amide", "formula": "C<SUB>15</SUB>H<SUB>22</SUB>F<SUB>6</SUB>N<SUB>2</SUB>O<SUB>4</SUB>S<SUB>2</SUB>", "sample": [["Source:", "synthesized by the authors"], ["Purification:", "NMR (proton);Karl Fischer titration;ion chromatography"], ["Purity:", "98 mass %;0.005 water mass %;0.002 halide impurity mass %(dried by vacuum heating;solvent extraction)"]]}], "title": "Refraction, surface tension, and speed of sound: Refractive index (Na D-line)", "dhead": [["Temperature, K", null], ["Pressure, kPa", null], ["Refractive index (Na D-line)", "Liquid"]], "data": [[["298.15"], ["101.325"], ["1.4464", "0.0006"]]], "solvent": null, "footer": "", "expmeth": "Standard Abbe refractometry"}