{"constr": [], "ref": {"full": "Rao, S. G.; Mohan, T. M.; Krishna, T. V.; Narendra, K.; Rao, B. S. (2015) J. Mol. Liq. 211, 1009-1017.", "title": "Thermophysical properties of 1-butyl-3-methylimidazolium tetrafluoroborate and N-methyl-2-pyrrolidinone as a function of temperature"}, "phases": ["Liquid"], "components": [{"sample": [["Source:", "commercial source"], ["Initial purification:", "stated by supplier"], ["Initial purity:", "99 mass %"], ["Final purification:", "Karl Fischer titration"], ["Final purity:", "0.0320 water mass %(dried by vacuum heating)"]], "formula": "C<SUB>8</SUB>H<SUB>15</SUB>BF<SUB>4</SUB>N<SUB>2</SUB>", "name": "1-butyl-3-methylimidazolium tetrafluoroborate", "idout": "AArYBF", "mw": "226.03"}], "title": "Refraction, surface tension, and speed of sound: Refractive index (Na D-line)", "dhead": [["Temperature, K", null], ["Pressure, kPa", null], ["Refractive index (Na D-line)", "Liquid"]], "data": [[["298.15"], ["100"], ["1.42058", "0.00053"]], [["303.15"], ["100"], ["1.41913", "0.00054"]], [["308.15"], ["100"], ["1.41764", "0.00053"]], [["313.15"], ["100"], ["1.41621", "0.00053"]], [["318.15"], ["100"], ["1.41472", "0.00053"]], [["323.15"], ["100"], ["1.41331", "0.00053"]]], "solvent": null, "footer": "", "expmeth": "Standard Abbe refractometry"}