{"title": "Refraction, surface tension, and speed of sound: Refractive index (Na D-line)", "components": [{"sample": [["Source:", "commercial source"], ["Purification:", "NMR (proton)"], ["Initial purity:", "97 mass %"], ["Final purity:", "0.135 water mass %(dried by vacuum heating)"]], "mw": "233.32", "idout": "AAstlh", "name": "1-hexyl-3-methylimidazolium dicyanamide", "formula": "C<SUB>12</SUB>H<SUB>19</SUB>N<SUB>5</SUB>"}], "dhead": [["Temperature, K", null], ["Pressure, kPa", null], ["Refractive index (Na D-line)", "Liquid"]], "footer": "", "data": [[["288.15"], ["101"], ["1.50729", "0.00079"]], [["288.15"], ["101.325"], ["1.50729", "0.00079"]], [["298.15"], ["101"], ["1.50415", "0.00079"]], [["298.15"], ["101.325"], ["1.50415", "0.00079"]], [["308.15"], ["101"], ["1.501", "0.00079"]], [["308.15"], ["101.325"], ["1.501", "0.00079"]]], "solvent": null, "expmeth": "Standard Abbe refractometry", "ref": {"title": "Article  Physical and Excess Properties of Eight Binary Mixtures Containing Water and Ionic Liquids", "full": "Gonzalez, E. J.; Dominguez, A.; Macedo, E. A. (2012) J. Chem. Eng. Data 57(8), 2165-2176."}, "constr": [], "phases": ["Liquid"]}