{"constr": [], "ref": {"title": "Densities, Viscosities, and Refractive Indices of 1-Hexyl-3-propanenitrile Imidazolium Ionic Liquids Incorporated with Sulfonate-Based Anions", "full": "Ziyada, A. K.; Bustam, M. A.; Wilfred, C. D.; Murugesan, T. (2011) J. Chem. Eng. Data 56(5), 2343-2348."}, "phases": ["Liquid"], "title": "Refraction, surface tension, and speed of sound: Refractive index (Na D-line)", "components": [{"sample": [["Source:", "synthesized by the authors"], ["Purification:", "Karl Fischer titration;ion chromatography;NMR (proton)"], ["Purity:", "0.0198 water mass %;0.0083 halide impurity mass %;97 % (basis not specified)"]], "formula": "C<SUB>24</SUB>H<SUB>45</SUB>N<SUB>3</SUB>O<SUB>4</SUB>S", "name": "3-(2-cyanoethyl)-1-hexyl-1H-imidazolium dodecyl sulfate", "idout": "ABmlzD", "mw": "471.70"}], "dhead": [["Temperature, K", null], ["Pressure, kPa", null], ["Refractive index (Na D-line)", "Liquid"]], "footer": "", "data": [[["298.15"], ["101.325"], ["1.48409", "0.00073"]], [["303.15"], ["101.325"], ["1.48269", "0.00073"]], [["308.15"], ["101.325"], ["1.48125", "0.00073"]], [["313.15"], ["101.325"], ["1.47991", "0.00072"]], [["318.15"], ["101.325"], ["1.47863", "0.00073"]], [["323.15"], ["101.325"], ["1.47702", "0.00074"]], [["328.15"], ["101.325"], ["1.47566", "0.00073"]], [["333.15"], ["101.325"], ["1.47422", "0.00073"]]], "solvent": null, "expmeth": "Standard Abbe refractometry"}