{"ref": {"title": "Physical Properties of Binary Mixtures of the Ionic Liquid 1-Methyl-3-octylimidazolium Chloride with Methanol, Ethanol, and 1-Propanol at T = (298.15, 313.15, and 328.15) K and at P ) 0.1 MPa", "full": "Gonzalez, E. J.; Alonso, L.; Dominguez, A. (2006) J. Chem. Eng. Data 51(4), 1446-1452."}, "constr": [], "phases": ["Liquid"], "components": [{"mw": "230.78", "idout": "AAsTjr", "name": "1-methyl-3-octylimidazolium chloride", "formula": "C<SUB>12</SUB>H<SUB>23</SUB>ClN<SUB>2</SUB>", "sample": [["Source:", "synthesized by the authors"], ["Purification:", "Karl Fischer titration"], ["Purity:", "0.05 water mass %"]]}], "title": "Refraction, surface tension, and speed of sound: Refractive index (Na D-line)", "dhead": [["Temperature, K", null], ["Pressure, kPa", null], ["Refractive index (Na D-line)", "Liquid"]], "data": [[["298.15"], ["101.325"], ["1.51051", "0.0017"]]], "solvent": null, "footer": "", "expmeth": "Standard Abbe refractometry"}