{"components": [{"sample": [["Source:", "commercial source"], ["Purification:", "estimated by the compiler"], ["Purity:", "99 mass %(fractional distillation)"]], "idout": "AADYJk", "mw": "18.02", "formula": "H<SUB>2</SUB>O", "name": "water"}, {"idout": "AAufur", "mw": "242.32", "formula": "C<SUB>12</SUB>H<SUB>22</SUB>N<SUB>2</SUB>O<SUB>3</SUB>", "name": "1-pentyl-3-methylimidazolium lactate", "sample": [["Source:", "synthesized by the authors"], ["Purification:", "estimated by the compiler"], ["Purity:", "98 mass %(dried by vacuum heating)"]]}], "title": "Refraction, surface tension, and speed of sound: Refractive index (Na D-line)", "dhead": [["Weight fraction of water", "Liquid"], ["Temperature, K", null], ["Pressure, kPa", null], ["Refractive index (Na D-line)", "Liquid"]], "data": [[["0.0081"], ["288.15"], ["101"], ["1.4933", "0.0005"]], [["0.0081"], ["293.15"], ["101"], ["1.492", "0.0005"]], [["0.0081"], ["303.15"], ["101"], ["1.4894", "0.0005"]], [["0.0081"], ["308.15"], ["101"], ["1.4883", "0.0005"]], [["0.0081"], ["313.15"], ["101"], ["1.4869", "0.0005"]], [["0.0081"], ["318.15"], ["101"], ["1.4857", "0.0005"]], [["0.0081"], ["323.15"], ["101"], ["1.4845", "0.0005"]], [["0.0081"], ["328.15"], ["101"], ["1.4833", "0.0005"]], [["0.0081"], ["333.15"], ["101"], ["1.482", "0.0005"]], [["0.0102"], ["288.15"], ["101"], ["1.4931", "0.0005"]], [["0.0102"], ["293.15"], ["101"], ["1.4918", "0.0005"]], [["0.0102"], ["303.15"], ["101"], ["1.4892", "0.0005"]], [["0.0102"], ["308.15"], ["101"], ["1.4881", "0.0005"]], [["0.0102"], ["313.15"], ["101"], ["1.4867", "0.0005"]], [["0.0102"], ["318.15"], ["101"], ["1.4855", "0.0005"]], [["0.0102"], ["323.15"], ["101"], ["1.4844", "0.0005"]], [["0.0102"], ["328.15"], ["101"], ["1.4831", "0.0005"]], [["0.0102"], ["333.15"], ["101"], ["1.4818", "0.0005"]], [["0.0129"], ["288.15"], ["101"], ["1.4929", "0.0005"]], [["0.0129"], ["293.15"], ["101"], ["1.4916", "0.0005"]], [["0.0129"], ["303.15"], ["101"], ["1.489", "0.0005"]], [["0.0129"], ["308.15"], ["101"], ["1.4879", "0.0005"]], [["0.0129"], ["313.15"], ["101"], ["1.4865", "0.0005"]], [["0.0129"], ["318.15"], ["101"], ["1.4853", "0.0005"]], [["0.0129"], ["323.15"], ["101"], ["1.4842", "0.0005"]], [["0.0129"], ["328.15"], ["101"], ["1.4829", "0.0005"]], [["0.0129"], ["333.15"], ["101"], ["1.4816", "0.0005"]], [["0.0153"], ["288.15"], ["101"], ["1.4927", "0.0005"]], [["0.0153"], ["293.15"], ["101"], ["1.4913", "0.0005"]], [["0.0153"], ["303.15"], ["101"], ["1.4888", "0.0005"]], [["0.0153"], ["308.15"], ["101"], ["1.4876", "0.0005"]], [["0.0153"], ["313.15"], ["101"], ["1.4863", "0.0005"]], [["0.0153"], ["318.15"], ["101"], ["1.4851", "0.0005"]], [["0.0153"], ["323.15"], ["101"], ["1.4841", "0.0005"]], [["0.0153"], ["328.15"], ["101"], ["1.4826", "0.0005"]], [["0.0153"], ["333.15"], ["101"], ["1.4814", "0.0005"]], [["0.0199"], ["288.15"], ["101"], ["1.4923", "0.0005"]], [["0.0199"], ["293.15"], ["101"], ["1.4909", "0.0005"]], [["0.0199"], ["303.15"], ["101"], ["1.4884", "0.0005"]], [["0.0199"], ["308.15"], ["101"], ["1.4872", "0.0005"]], [["0.0199"], ["313.15"], ["101"], ["1.486", "0.0005"]], [["0.0199"], ["318.15"], ["101"], ["1.4847", "0.0005"]], [["0.0199"], ["323.15"], ["101"], ["1.4838", "0.0005"]], [["0.0199"], ["328.15"], ["101"], ["1.4822", "0.0005"]], [["0.0199"], ["333.15"], ["101"], ["1.481", "0.0005"]]], "solvent": null, "footer": "", "expmeth": "Standard Abbe refractometry", "constr": [], "ref": {"title": "Studies on properties of ionic liquids 1-alkyl-3-methylimidazolium lactate at temperatures from (288.15 to 333.15) K", "full": "Hong, M.; Sun, A.; Yang, Q.; Guan, W.; Tong, J.; Yang, J. -Z. (2013) J. Chem. Thermodyn. 67, 91-98."}, "phases": ["Liquid"]}