{"ref": {"title": "Physical properties of the pure 1-methyl-1-propylpyrrolidinium bis(trifluoromethylsulfonyl)imide ionic liquid and its binary mixtures with alcohols", "full": "Gonzalez, B.; Gonzalez, E. J. (2014) J. Chem. Thermodyn. 68, 109-116."}, "constr": [], "phases": ["Liquid"], "title": "Refraction, surface tension, and speed of sound: Refractive index (Na D-line)", "components": [{"sample": [["Source:", "commercial source"], ["Initial purification:", "stated by supplier"], ["Initial purity:", "99 mass %"], ["Final purification:", "Karl Fischer titration"], ["Final purity:", "0.0431 water mass %(dried by vacuum heating)"]], "name": "1-methyl-1-propylpyrrolidinium bis[(trifluoromethyl)sulfonyl]imide", "formula": "C<SUB>10</SUB>H<SUB>18</SUB>F<SUB>6</SUB>N<SUB>2</SUB>O<SUB>4</SUB>S<SUB>2</SUB>", "idout": "ABabds", "mw": "408.37"}], "dhead": [["Temperature, K", null], ["Pressure, kPa", null], ["Refractive index (Na D-line)", "Liquid"]], "footer": "", "data": [[["293.15"], ["100"], ["1.42208", "0.00037"]], [["298.15"], ["100"], ["1.42069", "0.00037"]], [["303.15"], ["100"], ["1.41928", "0.00037"]], [["308.15"], ["100"], ["1.41787", "0.00037"]], [["313.15"], ["100"], ["1.41644", "0.00037"]], [["318.15"], ["100"], ["1.415", "0.00037"]], [["323.15"], ["100"], ["1.41354", "0.00037"]], [["328.15"], ["100"], ["1.41212", "0.00037"]], [["333.15"], ["100"], ["1.41073", "0.00037"]], [["338.15"], ["100"], ["1.40932", "0.00037"]], [["343.15"], ["100"], ["1.40796", "0.00037"]]], "solvent": null, "expmeth": "Standard Abbe refractometry"}