{"ref": {"full": "de Oliveira, L.; Alvarez, V.; Aznar, M. (2012) J. Chem. Eng. Data 57(3), 744-750.", "title": "Liquid Liquid Equilibrium in N-Methyl-2-hydroxyethylammonium Acetate, Butanoate, or Hexanoate Ionic Liquids + Dibenzothiophene + n-Dodecane Systems at 298.2 K and Atmospheric Pressure"}, "constr": [], "phases": ["Liquid mixture 1", "Liquid mixture 2"], "dhead": [["Mole fraction of N-methyl-2-hydroxyethylammonium hexanoate", "Liquid mixture 1"], ["Pressure, kPa", null], ["Temperature, K", null], ["Refractive index (Na D-line)", "Liquid mixture 1"]], "title": "Refraction, surface tension, and speed of sound: Refractive index (Na D-line)", "components": [{"sample": [["Source:", "commercial source"], ["Purification:", "stated by supplier"], ["Purity:", "99.6 mass %"]], "formula": "C<SUB>12</SUB>H<SUB>26</SUB>", "name": "dodecane", "mw": "170.34", "idout": "AAgnKZ"}, {"sample": [["Source:", "commercial source"], ["Purification:", "stated by supplier"], ["Purity:", "98 mass %"]], "idout": "AAjWNo", "mw": "184.26", "name": "dibenzothiophene", "formula": "C<SUB>12</SUB>H<SUB>8</SUB>S"}, {"name": "N-methyl-2-hydroxyethylammonium hexanoate", "formula": "C<SUB>9</SUB>H<SUB>21</SUB>NO<SUB>3</SUB>", "mw": "191.27", "idout": "AAkops", "sample": [["Source:", "synthesized by the authors"], ["Purification:", "Karl Fischer titration"], ["Purity:", "0.05 water mass %"]]}], "expmeth": "Standard Abbe refractometry", "footer": "", "data": [[["0.9327"], ["95"], ["298.2"], ["1.4601", "0.0009"]], [["0.937"], ["95"], ["298.2"], ["1.4593", "0.0009"]], [["0.9427"], ["95"], ["298.2"], ["1.4582", "0.0009"]], [["0.9507"], ["95"], ["298.2"], ["1.4569", "0.0009"]], [["0.961"], ["95"], ["298.2"], ["1.4558", "0.0009"]], [["0.9719"], ["95"], ["298.2"], ["1.4546", "0.0009"]]], "solvent": null}