{"constr": [], "ref": {"title": "Prediction of Thermophysical Properties of Acetate-Based Ionic Liquids Using Semiempirical Methods", "full": "Ma, X.-X.; Wei, J.; Zhang, Q.-B.; Tian, F.; Feng, Y.-Y.; Guan, W. (2013) Ind. Eng. Chem. Res. 52(27), 9490-9496."}, "phases": ["Liquid"], "components": [{"sample": [["Source:", "commercial source"], ["Purification:", "not known"], ["Purity:", "99.9 mass %"]], "name": "water", "formula": "H<SUB>2</SUB>O", "idout": "AADYJk", "mw": "18.02"}, {"sample": [["Source:", "commercial source"], ["Purification:", "estimated by the compiler"], ["Purity:", "98 mass %"], ["Purity analysis:", "dried by vacuum heating"]], "name": "1-butyl-3-methylimidazolium acetate", "formula": "C<SUB>10</SUB>H<SUB>18</SUB>N<SUB>2</SUB>O<SUB>2</SUB>", "mw": "198.27", "idout": "AAmGQS"}], "title": "Refraction, surface tension, and speed of sound: Refractive index (Na D-line)", "dhead": [["Temperature, K", null], ["Weight fraction of water", "Liquid"], ["Pressure, kPa", null], ["Refractive index (Na D-line)", "Liquid"]], "data": [[["298.15"], ["0"], ["101"], ["1.4869", "0.0005"]], [["303.15"], ["0"], ["101"], ["1.4857", "0.0005"]], [["303.15"], ["0.007"], ["101"], ["1.4845", "0.0005"]], [["303.15"], ["0.00814"], ["101"], ["1.4842", "0.0005"]], [["303.15"], ["0.00962"], ["101"], ["1.484", "0.001"]], [["303.15"], ["0.01113"], ["101"], ["1.4837", "0.0005"]], [["303.15"], ["0.01267"], ["101"], ["1.4835", "0.0005"]], [["308.15"], ["0"], ["101"], ["1.4845", "0.0005"]], [["308.15"], ["0.007"], ["101"], ["1.4832", "0.0005"]], [["308.15"], ["0.00814"], ["101"], ["1.4829", "0.0005"]], [["308.15"], ["0.00962"], ["101"], ["1.4826", "0.0005"]], [["308.15"], ["0.01113"], ["101"], ["1.4823", "0.0005"]], [["308.15"], ["0.01267"], ["101"], ["1.4821", "0.0005"]], [["313.15"], ["0"], ["101"], ["1.4831", "0.0005"]], [["313.15"], ["0.007"], ["101"], ["1.4818", "0.0005"]], [["313.15"], ["0.00814"], ["101"], ["1.4815", "0.0005"]], [["313.15"], ["0.00962"], ["101"], ["1.4813", "0.0005"]], [["313.15"], ["0.01113"], ["101"], ["1.481", "0.0005"]], [["313.15"], ["0.01267"], ["101"], ["1.4807", "0.0005"]], [["318.15"], ["0"], ["101"], ["1.482", "0.0005"]], [["318.15"], ["0.007"], ["101"], ["1.4807", "0.0005"]], [["318.15"], ["0.00814"], ["101"], ["1.4804", "0.0005"]], [["318.15"], ["0.00962"], ["101"], ["1.4801", "0.0005"]], [["318.15"], ["0.01113"], ["101"], ["1.4798", "0.0005"]], [["318.15"], ["0.01267"], ["101"], ["1.4796", "0.0005"]], [["323.15"], ["0"], ["101"], ["1.4807", "0.0005"]], [["323.15"], ["0.007"], ["101"], ["1.4794", "0.0005"]], [["323.15"], ["0.00814"], ["101"], ["1.4792", "0.0005"]], [["323.15"], ["0.00962"], ["101"], ["1.4789", "0.0005"]], [["323.15"], ["0.01113"], ["101"], ["1.4786", "0.0005"]], [["323.15"], ["0.01267"], ["101"], ["1.4784", "0.0005"]], [["328.15"], ["0"], ["101"], ["1.4795", "0.0005"]], [["328.15"], ["0.007"], ["101"], ["1.4782", "0.0005"]], [["328.15"], ["0.00814"], ["101"], ["1.478", "0.0005"]], [["328.15"], ["0.00962"], ["101"], ["1.4777", "0.0005"]], [["328.15"], ["0.01113"], ["101"], ["1.4775", "0.0005"]], [["328.15"], ["0.01267"], ["101"], ["1.4771", "0.0005"]], [["333.15"], ["0"], ["101"], ["1.4782", "0.0005"]], [["333.15"], ["0.007"], ["101"], ["1.4769", "0.0005"]], [["333.15"], ["0.00814"], ["101"], ["1.4767", "0.0005"]], [["333.15"], ["0.00962"], ["101"], ["1.4764", "0.0005"]], [["333.15"], ["0.01113"], ["101"], ["1.4762", "0.0005"]], [["333.15"], ["0.01267"], ["101"], ["1.4758", "0.0005"]], [["338.15"], ["0"], ["101"], ["1.4771", "0.0005"]], [["338.15"], ["0.007"], ["101"], ["1.4758", "0.0005"]], [["338.15"], ["0.00814"], ["101"], ["1.4756", "0.0005"]], [["338.15"], ["0.00962"], ["101"], ["1.4753", "0.0005"]], [["338.15"], ["0.01113"], ["101"], ["1.475", "0.0005"]], [["338.15"], ["0.01267"], ["101"], ["1.4748", "0.0005"]]], "solvent": null, "footer": "", "expmeth": "Standard Abbe refractometry"}