{"ref": {"title": "Viscosity, Interfacial Tension, Density, and Refractive Index of Ionic Liquids [EMIM][MeSO3], [EMIM][MeOHPO2], [EMIM][OcSO4], and [BBIM][NTf2] in Dependence on Temperature at Atmospheric Pressure", "full": "Hasse, B.; Lehmann, J.; Assenbaum, D.; Wasserscheid, P.; Leipertz, A.; Froba, A. P. (2009) J. Chem. Eng. Data 54(9), 2576-2583."}, "constr": [], "phases": ["Liquid"], "title": "Refraction, surface tension, and speed of sound: Refractive index (Na D-line)", "components": [{"sample": [["Source:", "commercial source"], ["Initial purification:", "stated by supplier"], ["Initial purity:", "98 % (basis not specified)"], ["Final purification:", "Karl Fischer titration"], ["Final purity:", "0.0284 water mass %(dried by oven heating)"]], "idout": "AAnhGV", "mw": "206.18", "name": "1-ethyl-3-methylimidazolium methyl phosphonate", "formula": "C<SUB>7</SUB>H<SUB>15</SUB>N<SUB>2</SUB>O<SUB>3</SUB>P"}], "dhead": [["Temperature, K", null], ["Pressure, kPa", null], ["Refractive index (Na D-line)", "Liquid"]], "footer": "", "data": [[["283.15"], ["101.325"], ["1.4969", "0.0016"]], [["293.15"], ["101.325"], ["1.4935", "0.0016"]], [["303.15"], ["101.325"], ["1.4928", "0.0016"]], [["313.15"], ["101.325"], ["1.4902", "0.0016"]]], "solvent": null, "expmeth": "Standard Abbe refractometry"}