{"constr": [], "ref": {"title": "(Liquid + liquid) phase equilibria of binary mixtures 1-butyl-3-methylimidazolium tetrafluoroborate and tert-butanol or 1,2-butanediol", "full": "Zheng, P.; Zhang, X.; Yin, T.; Shen, W. (2016) J. Chem. Thermodyn. 95, 26-34."}, "phases": ["Liquid"], "components": [{"sample": [["Source:", "commercial source"], ["Initial purification:", "stated by supplier"], ["Initial purity:", "99 mass %"], ["Final purification:", "Karl Fischer titration"], ["Final purity:", "0.0128 water mass %(molecular sieve treatment)"]], "idout": "AAONJg", "mw": "74.12", "formula": "C<SUB>4</SUB>H<SUB>10</SUB>O", "name": "2-methylpropan-2-ol"}, {"sample": [["Source:", "commercial source"], ["Initial purification:", "stated by supplier"], ["Initial purity:", "99 mass %"], ["Final purification:", "Karl Fischer titration"], ["Final purity:", "0.018 water mass %(dried in a desiccator;dried by vacuum heating)"]], "mw": "226.03", "idout": "AArYBF", "name": "1-butyl-3-methylimidazolium tetrafluoroborate", "formula": "C<SUB>8</SUB>H<SUB>15</SUB>BF<SUB>4</SUB>N<SUB>2</SUB>"}], "title": "Refraction, surface tension, and speed of sound: Refractive index", "dhead": [["Mole fraction of 1-butyl-3-methylimidazolium tetrafluoroborate", "Liquid"], ["Temperature, K", null], ["Pressure, kPa", null], ["Wavelength, A", "Liquid"], ["Refractive index", "Liquid"]], "data": [[["0"], ["308.372"], ["116"], ["632.8"], ["1.3781", "0.0004"]], [["0"], ["314.104"], ["116"], ["632.8"], ["1.3749", "0.0004"]], [["0"], ["319.44"], ["116"], ["632.8"], ["1.3719", "0.0004"]], [["0"], ["322.239"], ["116"], ["632.8"], ["1.3704", "0.0004"]], [["0"], ["324.446"], ["116"], ["632.8"], ["1.3691", "0.0004"]], [["0"], ["325.859"], ["116"], ["632.8"], ["1.3682", "0.0004"]], [["0"], ["327.427"], ["116"], ["632.8"], ["1.3674", "0.0004"]], [["0"], ["328.978"], ["116"], ["632.8"], ["1.3664", "0.0004"]], [["0"], ["330.446"], ["116"], ["632.8"], ["1.3656", "0.0004"]], [["0"], ["331.974"], ["116"], ["632.8"], ["1.3647", "0.0004"]], [["0.103"], ["331.175"], ["116"], ["632.8"], ["1.377", "0.0004"]], [["0.103"], ["332.746"], ["116"], ["632.8"], ["1.3763", "0.0004"]], [["0.103"], ["334.043"], ["116"], ["632.8"], ["1.3756", "0.0004"]], [["0.103"], ["335.402"], ["116"], ["632.8"], ["1.375", "0.0004"]], [["0.103"], ["337.025"], ["116"], ["632.8"], ["1.3742", "0.0004"]], [["0.103"], ["338.651"], ["116"], ["632.8"], ["1.3734", "0.0004"]], [["0.2"], ["332.477"], ["116"], ["632.8"], ["1.3844", "0.0004"]], [["0.2"], ["333.919"], ["116"], ["632.8"], ["1.3839", "0.0004"]], [["0.2"], ["335.119"], ["116"], ["632.8"], ["1.3835", "0.0004"]], [["0.2"], ["336.517"], ["116"], ["632.8"], ["1.383", "0.0004"]], [["0.2"], ["337.728"], ["116"], ["632.8"], ["1.3825", "0.0004"]], [["0.2"], ["338.752"], ["116"], ["632.8"], ["1.3821", "0.0004"]], [["0.302"], ["329.323"], ["116"], ["632.8"], ["1.3922", "0.0004"]], [["0.302"], ["330.998"], ["116"], ["632.8"], ["1.3917", "0.0004"]], [["0.302"], ["332.234"], ["116"], ["632.8"], ["1.3913", "0.0004"]], [["0.302"], ["333.63"], ["116"], ["632.8"], ["1.3908", "0.0004"]], [["0.302"], ["334.449"], ["116"], ["632.8"], ["1.3905", "0.0004"]], [["0.302"], ["335.617"], ["116"], ["632.8"], ["1.3901", "0.0004"]], [["0.393"], ["321.613"], ["116"], ["632.8"], ["1.3995", "0.0004"]], [["0.393"], ["323.153"], ["116"], ["632.8"], ["1.399", "0.0004"]], [["0.393"], ["324.721"], ["116"], ["632.8"], ["1.3985", "0.0004"]], [["0.393"], ["326.305"], ["116"], ["632.8"], ["1.398", "0.0004"]], [["0.393"], ["327.854"], ["116"], ["632.8"], ["1.3975", "0.0004"]], [["0.393"], ["329.503"], ["116"], ["632.8"], ["1.3969", "0.0004"]], [["0.499"], ["321.736"], ["116"], ["632.8"], ["1.4037", "0.0004"]], [["0.499"], ["323.36"], ["116"], ["632.8"], ["1.4032", "0.0004"]], [["0.499"], ["324.823"], ["116"], ["632.8"], ["1.4028", "0.0004"]], [["0.499"], ["326.443"], ["116"], ["632.8"], ["1.4023", "0.0004"]], [["0.499"], ["327.984"], ["116"], ["632.8"], ["1.4019", "0.0004"]], [["0.499"], ["329.469"], ["116"], ["632.8"], ["1.4014", "0.0004"]], [["0.599"], ["322.063"], ["116"], ["632.8"], ["1.4065", "0.0004"]], [["0.599"], ["323.646"], ["116"], ["632.8"], ["1.4061", "0.0004"]], [["0.599"], ["325.171"], ["116"], ["632.8"], ["1.4057", "0.0004"]], [["0.599"], ["326.608"], ["116"], ["632.8"], ["1.4054", "0.0004"]], [["0.599"], ["328.124"], ["116"], ["632.8"], ["1.405", "0.0004"]], [["0.599"], ["329.709"], ["116"], ["632.8"], ["1.4046", "0.0004"]], [["0.708"], ["322.748"], ["116"], ["632.8"], ["1.4094", "0.0004"]], [["0.708"], ["324.491"], ["116"], ["632.8"], ["1.409", "0.0004"]], [["0.708"], ["325.879"], ["116"], ["632.8"], ["1.4086", "0.0004"]], [["0.708"], ["327.321"], ["116"], ["632.8"], ["1.4082", "0.0004"]], [["0.708"], ["328.936"], ["116"], ["632.8"], ["1.4078", "0.0004"]], [["0.708"], ["330.531"], ["116"], ["632.8"], ["1.4073", "0.0004"]], [["0.8"], ["320.422"], ["116"], ["632.8"], ["1.412", "0.0004"]], [["0.8"], ["322.111"], ["116"], ["632.8"], ["1.4116", "0.0004"]], [["0.8"], ["324.173"], ["116"], ["632.8"], ["1.4111", "0.0004"]], [["0.8"], ["325.68"], ["116"], ["632.8"], ["1.4107", "0.0004"]], [["0.8"], ["326.979"], ["116"], ["632.8"], ["1.4104", "0.0004"]], [["0.8"], ["328.422"], ["116"], ["632.8"], ["1.41", "0.0004"]], [["0.891"], ["320.542"], ["116"], ["632.8"], ["1.4138", "0.0004"]], [["0.891"], ["322.301"], ["116"], ["632.8"], ["1.4133", "0.0004"]], [["0.891"], ["324.142"], ["116"], ["632.8"], ["1.4127", "0.0004"]], [["0.891"], ["325.374"], ["116"], ["632.8"], ["1.4123", "0.0004"]], [["0.891"], ["326.673"], ["116"], ["632.8"], ["1.412", "0.0004"]], [["0.891"], ["328.396"], ["116"], ["632.8"], ["1.4115", "0.0004"]], [["1"], ["321.733"], ["116"], ["632.8"], ["1.415", "0.0004"]], [["1"], ["323.294"], ["116"], ["632.8"], ["1.4146", "0.0004"]], [["1"], ["324.943"], ["116"], ["632.8"], ["1.4142", "0.0004"]], [["1"], ["326.237"], ["116"], ["632.8"], ["1.4139", "0.0004"]], [["1"], ["327.797"], ["116"], ["632.8"], ["1.4135", "0.0004"]], [["1"], ["329.297"], ["116"], ["632.8"], ["1.4131", "0.0004"]], [["1"], ["330.866"], ["116"], ["632.8"], ["1.4127", "0.0004"]], [["1"], ["331.935"], ["116"], ["632.8"], ["1.4124", "0.0004"]]], "solvent": null, "footer": "", "expmeth": "Standard Abbe refractometry"}