{"dhead": [["Temperature, K", null], ["Pressure, kPa", null], ["Wavelength, A", "Liquid"], ["Refractive index", "Liquid"]], "components": [{"idout": "AByLzK", "mw": "531.57", "name": "1-dodecyl-3-methyl-1H-imidazolium bis(trifluoromethylsulfonyl)amide", "formula": "C<SUB>18</SUB>H<SUB>31</SUB>F<SUB>6</SUB>N<SUB>3</SUB>O<SUB>4</SUB>S<SUB>2</SUB>", "sample": [["Source:", "commercial source"], ["Purification:", "stated by supplier"], ["Purity:", "99 % (basis not specified)"]]}], "title": "Refraction, surface tension, and speed of sound: Refractive index", "expmeth": "Standard Abbe refractometry", "data": [[["293"], ["101300"], ["400"], ["1.45321", "0.0007"]]], "solvent": null, "footer": "", "ref": {"full": "Costa, R.; Pereira, C. M.; Silva, A. F.; Brevet, P.-F.; Benichou, E. (2020) J. Phys. Chem. B 124(19), 3954-3961.", "title": "Ordering and Nonideality of Air-Ionic Liquid Interfaces in Surface Second Harmonic Generation"}, "constr": [], "phases": ["Liquid"]}