{"components": [{"sample": [["Source:", "commercial source"], ["Initial purification:", "stated by supplier"], ["Initial purity:", "99 mass %"], ["Final purification:", "ion chromatography;Karl Fischer titration"], ["Final purity:", "0.01 halide impurity mass %;0.01 water mass %(none used)"]], "mw": "223.02", "idout": "AAquMR", "formula": "C<SUB>9</SUB>H<SUB>14</SUB>BF<SUB>4</SUB>N", "name": "1-butylpyridinium tetrafluoroborate"}, {"formula": "C<SUB>12</SUB>H<SUB>16</SUB>F<SUB>6</SUB>N<SUB>2</SUB>O<SUB>4</SUB>S<SUB>2</SUB>", "name": "1-butyl-4-methylpyridinium bis((trifluoromethyl)sulfonyl)amide", "mw": "430.38", "idout": "ABenmT", "sample": [["Source:", "commercial source"], ["Initial purification:", "stated by supplier"], ["Initial purity:", "99 mass %"], ["Final purification:", "ion chromatography;Karl Fischer titration"], ["Final purity:", "0.01 halide impurity mass %;0.01 water mass %(none used)"]]}], "title": "Refraction, surface tension, and speed of sound: Refractive index (Na D-line)", "dhead": [["Temperature, K", null], ["Mole fraction of 1-butylpyridinium tetrafluoroborate", "Liquid"], ["Pressure, kPa", null], ["Refractive index (Na D-line)", "Liquid"]], "data": [[["293.15"], ["0"], ["101"], ["1.448", "0.0007"]], [["293.15"], ["0.0575"], ["101"], ["1.4479", "0.0007"]], [["293.15"], ["0.1136"], ["101"], ["1.4477", "0.0007"]], [["293.15"], ["0.2311"], ["101"], ["1.4474", "0.0007"]], [["293.15"], ["0.3515"], ["101"], ["1.4472", "0.0007"]], [["293.15"], ["0.4566"], ["101"], ["1.4471", "0.0007"]], [["293.15"], ["0.5692"], ["101"], ["1.4469", "0.0007"]], [["293.15"], ["0.673"], ["101"], ["1.4468", "0.0007"]], [["293.15"], ["0.7836"], ["101"], ["1.4468", "0.0007"]], [["293.15"], ["0.889"], ["101"], ["1.4469", "0.0007"]], [["293.15"], ["0.9535"], ["101"], ["1.447", "0.0007"]], [["293.15"], ["1"], ["101"], ["1.447", "0.0007"]], [["303.15"], ["0"], ["101"], ["1.4449", "0.0007"]], [["303.15"], ["0.0575"], ["101"], ["1.4448", "0.0007"]], [["303.15"], ["0.1136"], ["101"], ["1.4446", "0.0007"]], [["303.15"], ["0.2311"], ["101"], ["1.4444", "0.0007"]], [["303.15"], ["0.3515"], ["101"], ["1.4443", "0.0007"]], [["303.15"], ["0.4566"], ["101"], ["1.4441", "0.0007"]], [["303.15"], ["0.5692"], ["101"], ["1.4441", "0.0007"]], [["303.15"], ["0.673"], ["101"], ["1.444", "0.0007"]], [["303.15"], ["0.7836"], ["101"], ["1.4441", "0.0007"]], [["303.15"], ["0.889"], ["101"], ["1.4442", "0.0007"]], [["303.15"], ["0.9535"], ["101"], ["1.4443", "0.0007"]], [["303.15"], ["1"], ["101"], ["1.4444", "0.0007"]], [["313.15"], ["0"], ["101"], ["1.4419", "0.0007"]], [["313.15"], ["0.0575"], ["101"], ["1.4418", "0.0007"]], [["313.15"], ["0.1136"], ["101"], ["1.4416", "0.0007"]], [["313.15"], ["0.2311"], ["101"], ["1.4414", "0.0007"]], [["313.15"], ["0.3515"], ["101"], ["1.4414", "0.0007"]], [["313.15"], ["0.4566"], ["101"], ["1.4413", "0.0007"]], [["313.15"], ["0.5692"], ["101"], ["1.4413", "0.0007"]], [["313.15"], ["0.673"], ["101"], ["1.4413", "0.0007"]], [["313.15"], ["0.7836"], ["101"], ["1.4413", "0.0007"]], [["313.15"], ["0.889"], ["101"], ["1.4416", "0.0007"]], [["313.15"], ["0.9535"], ["101"], ["1.4417", "0.0007"]], [["313.15"], ["1"], ["101"], ["1.4418", "0.0007"]], [["323.15"], ["0"], ["101"], ["1.4388", "0.0007"]], [["323.15"], ["0.0575"], ["101"], ["1.4388", "0.0007"]], [["323.15"], ["0.1136"], ["101"], ["1.4386", "0.0007"]], [["323.15"], ["0.2311"], ["101"], ["1.4385", "0.0007"]], [["323.15"], ["0.3515"], ["101"], ["1.4385", "0.0007"]], [["323.15"], ["0.4566"], ["101"], ["1.4384", "0.0007"]], [["323.15"], ["0.5692"], ["101"], ["1.4385", "0.0007"]], [["323.15"], ["0.673"], ["101"], ["1.4385", "0.0007"]], [["323.15"], ["0.7836"], ["101"], ["1.4386", "0.0007"]], [["323.15"], ["0.889"], ["101"], ["1.4389", "0.0007"]], [["323.15"], ["0.9535"], ["101"], ["1.439", "0.0007"]], [["323.15"], ["1"], ["101"], ["1.4392", "0.0007"]], [["333.15"], ["0"], ["101"], ["1.4358", "0.0007"]], [["333.15"], ["0.0575"], ["101"], ["1.4357", "0.0007"]], [["333.15"], ["0.1136"], ["101"], ["1.4356", "0.0007"]], [["333.15"], ["0.2311"], ["101"], ["1.4356", "0.0007"]], [["333.15"], ["0.3515"], ["101"], ["1.4356", "0.0007"]], [["333.15"], ["0.4566"], ["101"], ["1.4356", "0.0007"]], [["333.15"], ["0.5692"], ["101"], ["1.4357", "0.0007"]], [["333.15"], ["0.673"], ["101"], ["1.4358", "0.0007"]], [["333.15"], ["0.7836"], ["101"], ["1.4359", "0.0007"]], [["333.15"], ["0.889"], ["101"], ["1.4362", "0.0007"]], [["333.15"], ["0.9535"], ["101"], ["1.4364", "0.0007"]], [["333.15"], ["1"], ["101"], ["1.4366", "0.0007"]], [["343.15"], ["0"], ["101"], ["1.4328", "0.0007"]], [["343.15"], ["0.0575"], ["101"], ["1.4328", "0.0007"]], [["343.15"], ["0.1136"], ["101"], ["1.4327", "0.0007"]], [["343.15"], ["0.2311"], ["101"], ["1.4327", "0.0007"]], [["343.15"], ["0.3515"], ["101"], ["1.4327", "0.0007"]], [["343.15"], ["0.4566"], ["101"], ["1.4328", "0.0007"]], [["343.15"], ["0.5692"], ["101"], ["1.433", "0.0007"]], [["343.15"], ["0.673"], ["101"], ["1.4331", "0.0007"]], [["343.15"], ["0.7836"], ["101"], ["1.4333", "0.0007"]], [["343.15"], ["0.889"], ["101"], ["1.4336", "0.0007"]], [["343.15"], ["0.9535"], ["101"], ["1.4338", "0.0007"]], [["343.15"], ["1"], ["101"], ["1.4341", "0.0007"]], [["353.15"], ["0"], ["101"], ["1.4298", "0.0007"]], [["353.15"], ["0.0575"], ["101"], ["1.4298", "0.0007"]], [["353.15"], ["0.1136"], ["101"], ["1.4297", "0.0007"]], [["353.15"], ["0.2311"], ["101"], ["1.4298", "0.0007"]], [["353.15"], ["0.3515"], ["101"], ["1.4299", "0.0007"]], [["353.15"], ["0.4566"], ["101"], ["1.43", "0.0007"]], [["353.15"], ["0.5692"], ["101"], ["1.4302", "0.0007"]], [["353.15"], ["0.673"], ["101"], ["1.4304", "0.0007"]], [["353.15"], ["0.7836"], ["101"], ["1.4306", "0.0007"]], [["353.15"], ["0.889"], ["101"], ["1.431", "0.0007"]], [["353.15"], ["0.9535"], ["101"], ["1.4313", "0.0007"]], [["353.15"], ["1"], ["101"], ["1.4315", "0.0007"]]], "solvent": null, "footer": "", "expmeth": "Standard Abbe refractometry", "constr": [], "ref": {"full": "Larriba, M.; Garcia, S.; Navarro, P.; Garcia, J.; Rodriguez, F. (2013) J. Chem. Eng. Data 58(6), 1496-1504.", "title": "Physical Characterization of an Aromatic Extraction Solvent Formed by [bpy][BF4] and [4bmpy][Tf2N] Mixed Ionic Liquids"}, "phases": ["Liquid"]}