{"title": "Refraction, surface tension, and speed of sound: Refractive index (Na D-line)", "components": [{"sample": [["Source:", "synthesized by the authors"], ["Purification:", "Karl Fischer titration;estimated by the compiler"], ["Purity:", "0.1103 water mass %;98 mass %(dried in a desiccator;dried by vacuum heating)"]], "mw": "474.51", "idout": "ABnNGC", "name": "1-decyl-1-methylpiperidinium 2-(2,4-dichlorophenoxy)propionate", "formula": "C<SUB>25</SUB>H<SUB>41</SUB>Cl<SUB>2</SUB>NO<SUB>3</SUB>"}], "dhead": [["Temperature, K", null], ["Pressure, kPa", null], ["Refractive index (Na D-line)", "Liquid"]], "footer": "", "data": [[["293"], ["101.325"], ["1.5221", "0.0008"]]], "solvent": null, "expmeth": "Standard Abbe refractometry", "ref": {"full": "Niemczak, M.; Rzemieniecki, T.; Sobiech, L.; Skrzypczak, G.; Praczyk, T.; Pernak, J. (2019) J. Mol. Liq. 276, 431-440.", "title": "Influence of the alkyl chain length on the physicochemical properties and biological activity in a homologous series of dichlorprop-based herbicidal ionic liquids"}, "constr": [], "phases": ["Liquid"]}