{"ref": {"full": "Ziyada, A. K.; Wilfred, C. D.; Murugesan, T. (2012) Phys. Chem. Liq. 50(2), 152-160.", "title": "Densities, viscosities and refractive indices of 1-alkyl- 3-propanenitrile imidazolium chloride ionic liquids"}, "constr": [], "phases": ["Liquid"], "components": [{"idout": "AApFNR", "mw": "213.71", "name": "3-butyl-1-(2-cyanoethyl)-1H-imidazol-3-ium chloride", "formula": "C<SUB>10</SUB>H<SUB>16</SUB>ClN<SUB>3</SUB>", "sample": [["Source:", "synthesized by the authors"], ["Purification:", "estimated by the compiler;Karl Fischer titration"], ["Purity:", "98 mass %;0.0271 water mass %(dried in a desiccator;dried by vacuum heating)"]]}], "title": "Refraction, surface tension, and speed of sound: Refractive index (Na D-line)", "dhead": [["Temperature, K", null], ["Pressure, kPa", null], ["Refractive index (Na D-line)", "Liquid"]], "data": [[["298.15"], ["101.325"], ["1.51933", "0.00057"]], [["303.15"], ["101.325"], ["1.51813", "0.00057"]], [["308.15"], ["101.325"], ["1.5171", "0.00057"]], [["313.15"], ["101.325"], ["1.5161", "0.00057"]], [["318.15"], ["101.325"], ["1.515", "0.00057"]], [["323.15"], ["101.325"], ["1.51388", "0.00057"]], [["328.15"], ["101.325"], ["1.51272", "0.00057"]], [["333.15"], ["101.325"], ["1.51157", "0.00057"]]], "solvent": null, "footer": "", "expmeth": "Standard Abbe refractometry"}