{"components": [{"sample": [["Source:", "synthesized by the authors"], ["Purification:", "Karl Fischer titration;NMR (proton)"], ["Purity:", "0.04 water mass %;98 % (basis not specified)(dried by vacuum heating)"]], "idout": "ABYXQF", "mw": "397.57", "name": "L-alanine, 1-methylethyl ester, dodecyl sulfate (1:1)", "formula": "C<SUB>18</SUB>H<SUB>39</SUB>NO<SUB>6</SUB>S"}], "title": "Refraction, surface tension, and speed of sound: Refractive index (Na D-line)", "dhead": [["Temperature, K", null], ["Pressure, kPa", null], ["Refractive index (Na D-line)", "Liquid"]], "data": [[["288.15"], ["101.325"], ["1.4542", "0.0011"]], [["293.15"], ["101.325"], ["1.4525", "0.0011"]], [["298.15"], ["101.325"], ["1.4512", "0.0011"]], [["303.15"], ["101.325"], ["1.4498", "0.0011"]], [["308.15"], ["101.325"], ["1.448", "0.0011"]], [["313.15"], ["101.325"], ["1.4466", "0.0011"]], [["318.15"], ["101.325"], ["1.4449", "0.0011"]], [["323.15"], ["101.325"], ["1.4434", "0.0011"]], [["328.15"], ["101.325"], ["1.4418", "0.0011"]], [["333.15"], ["101.325"], ["1.4404", "0.0011"]], [["338.15"], ["101.325"], ["1.4387", "0.0011"]], [["343.15"], ["101.325"], ["1.4371", "0.0011"]]], "solvent": null, "footer": "", "expmeth": "Standard Abbe refractometry", "ref": {"title": "Temperature Dependence of Physical Properties of Amino Acid Ionic  Liquid Surfactants", "full": "Trivedi, T. J.; Bharmoria, P.; Singh, T.; Kumar, A. (2012) J. Chem. Eng. Data 57(2), 317-323."}, "constr": [], "phases": ["Liquid"]}