{"constr": [], "ref": {"full": "Yebra, Francisco; Zemankova, Katerina; Troncoso, Jacobo (2018) J. Chem. Thermodyn. 116, 235-240.", "title": "Speed of sound in ionic liquids with a common ion as a function of pressure and temperature"}, "phases": ["Liquid"], "components": [{"formula": "C<SUB>11</SUB>H<SUB>20</SUB>F<SUB>6</SUB>N<SUB>2</SUB>O<SUB>4</SUB>S<SUB>2</SUB>", "name": "1-butyl-1-methylpyrrolidinium bis[(trifluoromethyl)sulfonyl]imide", "mw": "422.40", "idout": "ABdMNo", "sample": [["Source:", "commercial source"], ["Initial purification:", "stated by supplier"], ["Initial purity:", "99 mass %"], ["Final purification:", "Karl Fischer titration"], ["Final purity:", "0.008 water mass %(dried by vacuum heating)"]]}], "title": "Refraction, surface tension, and speed of sound: Refractive index (Na D-line)", "dhead": [["Temperature, K", null], ["Pressure, kPa", null], ["Refractive index (Na D-line)", "Liquid"]], "data": [[["298.15"], ["101.325"], ["1.423", "0.0029"]]], "solvent": null, "footer": "", "expmeth": "Standard Abbe refractometry"}