{"expmeth": "minimum beam deflection method", "data": [[["293.37"], ["101.325"], ["1.41344", "0.0006"]], [["294.63"], ["101.325"], ["1.41246", "0.0006"]], [["296.43"], ["101.325"], ["1.41121", "0.0006"]], [["298.35"], ["101.325"], ["1.40971", "0.0006"]], [["299.95"], ["101.325"], ["1.40813", "0.0006"]], [["301.11"], ["101.325"], ["1.40692", "0.0006"]], [["301.91"], ["101.325"], ["1.40575", "0.0006"]], [["302.48"], ["101.325"], ["1.40492", "0.0006"]], [["302.72"], ["101.325"], ["1.40435", "0.0006"]], [["303"], ["101.325"], ["1.40367", "0.0006"]], [["303.22"], ["101.325"], ["1.4031", "0.0006"]], [["303.35"], ["101.325"], ["1.40265", "0.0006"]], [["303.45"], ["101.325"], ["1.4022", "0.0006"]], [["303.54"], ["101.325"], ["1.40175", "0.0006"]], [["303.59"], ["101.325"], ["1.4012", "0.00062"]], [["303.61"], ["101.325"], ["1.40087", "0.00065"]], [["303.63"], ["101.325"], ["1.40022", "0.00065"]]], "solvent": null, "footer": "", "dhead": [["Temperature, K", null], ["Pressure, kPa", null], ["Refractive index (Na D-line)", "Liquid mixture 2"]], "components": [{"sample": [["Source:", "commercial source"], ["Purification:", "estimated by the compiler"], ["Purity:", "99 % (basis not specified)"], ["Purity analysis:", "none used"]], "idout": "AAONVE", "mw": "74.12", "name": "butan-1-ol", "formula": "C<SUB>4</SUB>H<SUB>10</SUB>O"}, {"sample": [["Source:", "commercial source"], ["Purity analysis:", "dried in a desiccator;dried by vacuum heating"]], "mw": "254.08", "idout": "AAwscj", "name": "1-hexyl-3-methylimidazolium tetrafluoroborate", "formula": "C<SUB>10</SUB>H<SUB>19</SUB>BF<SUB>4</SUB>N<SUB>2</SUB>"}], "title": "Refraction, surface tension, and speed of sound: Refractive index (Na D-line)", "phases": ["Liquid mixture 2", "Liquid mixture 1"], "ref": {"full": "Wagner, M.; Stanga, O.; Schroer, W. (2004) Phys. Chem. Chem. Phys. 6(18), 4421-4431.", "title": "The liquid liquid coexistence of binary mixtures of the room temperature ionic liquid 1-methyl-3-hexylimidazolium tetrafluoroborate with alcohols"}, "constr": []}