{"ref": {"title": "Thermophysical Study of Pyridinium-Based Ionic Liquids Sharing Ions", "full": "Reinado, C.; Pelegrina, A.; Sanchez-Rubio, M.; Artigas, H.; Lafuente, C. (2022) J. Chem. Eng. Data 67(3), 636-643."}, "constr": [], "phases": ["Metastable liquid"], "components": [{"sample": [["Source:", "commercial source"], ["Initial purification:", "stated by supplier"], ["Initial purity:", "99 mass %"], ["Final purification:", "Karl Fischer titration"], ["Final purity:", "0.0408 water mass %(de-gassed by evacuation)"]], "name": "1-butylpyridinium bis[(trifluoromethyl)sulfonyl]imide", "formula": "C<SUB>11</SUB>H<SUB>14</SUB>F<SUB>6</SUB>N<SUB>2</SUB>O<SUB>4</SUB>S<SUB>2</SUB>", "mw": "416.35", "idout": "ABcDLM"}], "title": "Refraction, surface tension, and speed of sound: Refractive index (Na D-line)", "dhead": [["Temperature, K", null], ["Pressure, kPa", null], ["Refractive index (Na D-line)", "Metastable liquid"]], "data": [[["283.15"], ["100"], ["1.44725", "0.00037"]], [["285.65"], ["100"], ["1.44651", "0.00037"]], [["288.15"], ["100"], ["1.44575", "0.00037"]], [["290.65"], ["100"], ["1.445", "0.00037"]], [["293.15"], ["100"], ["1.44425", "0.00037"]], [["295.65"], ["100"], ["1.4435", "0.00037"]], [["298.15"], ["100"], ["1.44276", "0.00037"]], [["300.65"], ["100"], ["1.442", "0.00037"]], [["303.15"], ["100"], ["1.44126", "0.00037"]], [["305.65"], ["100"], ["1.44051", "0.00037"]], [["308.15"], ["100"], ["1.43976", "0.00037"]], [["310.65"], ["100"], ["1.43901", "0.00037"]], [["313.15"], ["100"], ["1.43826", "0.00037"]], [["315.65"], ["100"], ["1.43756", "0.00037"]], [["318.15"], ["100"], ["1.43678", "0.00037"]], [["320.65"], ["100"], ["1.43603", "0.00037"]], [["323.15"], ["100"], ["1.43527", "0.00037"]], [["325.65"], ["100"], ["1.43454", "0.00037"]], [["328.15"], ["100"], ["1.43379", "0.00037"]], [["330.65"], ["100"], ["1.43305", "0.00037"]], [["333.15"], ["100"], ["1.43233", "0.00037"]], [["335.65"], ["100"], ["1.43159", "0.00037"]], [["338.15"], ["100"], ["1.43087", "0.00037"]]], "solvent": null, "footer": "", "expmeth": "Standard Abbe refractometry"}