{"constr": [], "ref": {"title": "Viscosity, Density, Speed of Sound, and Refractive Index of Binary Mixtures of Organic Solvent + Ionic Liquid, 1-Butyl-3-methylimidazolium Hexafluorophosphate at 298.15 K", "full": "Zafarani-Moattar, M. T.; Majdan-Cegincara, R. (2007) J. Chem. Eng. Data 52(6), 2359-2364."}, "phases": ["Liquid"], "components": [{"mw": "72.11", "idout": "AANtst", "name": "tetrahydrofuran", "formula": "C<SUB>4</SUB>H<SUB>8</SUB>O", "sample": [["Source:", "commercial source"], ["Purification:", "stated by supplier"], ["Purity:", "99.5 mass %"]]}, {"sample": [["Source:", "commercial source"], ["Initial purification:", "stated by supplier"], ["Initial purity:", "98 mass %"], ["Final purification:", "Karl Fischer titration"], ["Final purity:", "0.0001 water mass %(de-gassed by evacuation)"]], "name": "1-butyl-3-methylimidazolium hexafluorophosphate", "formula": "C<SUB>8</SUB>H<SUB>15</SUB>F<SUB>6</SUB>N<SUB>2</SUB>P", "mw": "284.19", "idout": "ABChJv"}], "title": "Refraction, surface tension, and speed of sound: Refractive index (Na D-line)", "dhead": [["Mole fraction of 1-butyl-3-methylimidazolium hexafluorophosphate", "Liquid"], ["Pressure, kPa", null], ["Temperature, K", null], ["Refractive index (Na D-line)", "Liquid"]], "data": [[["0.0502"], ["101"], ["298.15"], ["1.4084", "0.0006"]], [["0.0967"], ["101"], ["298.15"], ["1.4117", "0.0006"]], [["0.1524"], ["101"], ["298.15"], ["1.4125", "0.0006"]], [["0.1999"], ["101"], ["298.15"], ["1.4126", "0.0006"]], [["0.2969"], ["101"], ["298.15"], ["1.413", "0.0007"]], [["0.3484"], ["101"], ["298.15"], ["1.4128", "0.0007"]], [["0.3994"], ["101"], ["298.15"], ["1.4127", "0.0007"]], [["0.4484"], ["101"], ["298.15"], ["1.4126", "0.0007"]], [["0.5028"], ["101"], ["298.15"], ["1.4117", "0.0007"]], [["0.6047"], ["101"], ["298.15"], ["1.4115", "0.0007"]], [["0.7016"], ["101"], ["298.15"], ["1.411", "0.0007"]], [["0.805"], ["101"], ["298.15"], ["1.4105", "0.0007"]], [["0.9595"], ["101"], ["298.15"], ["1.4095", "0.0007"]]], "solvent": null, "footer": "", "expmeth": "Standard Abbe refractometry"}