{"title": "Refraction, surface tension, and speed of sound: Refractive index (Na D-line)", "components": [{"formula": "C<SUB>2</SUB>H<SUB>6</SUB>O<SUB>2</SUB>", "name": "1,2-ethanediol", "idout": "AALwIY", "mw": "62.07", "sample": [["Source:", "commercial source"], ["Purification:", "estimated by the compiler"], ["Purity:", "99 mol %"]]}, {"idout": "ABWotl", "mw": "388.87", "formula": "C<SUB>25</SUB>H<SUB>22</SUB>ClP", "name": "benzyltriphenylphosphonium chloride", "sample": [["Source:", "commercial source"], ["Purification:", "estimated by the compiler"], ["Purity:", "99 mol %"]]}], "dhead": [["Temperature, K", null], ["Pressure, kPa", null], ["Mole fraction of 1,2-ethanediol", "Liquid"], ["Refractive index (Na D-line)", "Liquid"]], "footer": "", "data": [[["328.15"], ["101.3"], ["0.25"], ["1.5258", "0.0054"]], [["338.15"], ["101.3"], ["0.25"], ["1.5309", "0.0054"]]], "solvent": null, "expmeth": "Standard Abbe refractometry", "ref": {"full": "Kareem, M. A.; Mjalli, F. S.; Hashim, M. A.; AlNashef, I. (2010) J. Chem. Eng. Data 55(11), 4632-4637.", "title": "Phosphonium-Based Ionic Liquids Analogues and Their Physical Properties"}, "constr": [], "phases": ["Liquid"]}