{"components": [{"sample": [["Source:", "commercial source"], ["Purification:", "stated by supplier"], ["Purity:", "99 mass %"], ["Purity analysis:", "de-gassed by boiling or ultrasonically;molecular sieve treatment"]], "formula": "C<SUB>3</SUB>H<SUB>8</SUB>O", "name": "propan-2-ol", "mw": "60.10", "idout": "AALcwx"}, {"sample": [["Source:", "commercial source"], ["Initial purification:", "stated by supplier"], ["Initial purity:", "98 mass %"], ["Final purification:", "Karl Fischer titration"], ["Final purity:", "0.03 water mass %"]], "mw": "340.29", "idout": "ABNWoR", "formula": "C<SUB>12</SUB>H<SUB>23</SUB>F<SUB>6</SUB>N<SUB>2</SUB>P", "name": "1-octyl-3-methylimidazolium hexafluorophosphate"}], "title": "Refraction, surface tension, and speed of sound: Refractive index (Na D-line)", "dhead": [["Temperature, K", null], ["Mole fraction of 1-octyl-3-methylimidazolium hexafluorophosphate", "Liquid"], ["Pressure, kPa", null], ["Refractive index (Na D-line)", "Liquid"]], "data": [[["293.15"], ["0"], ["101"], ["1.37707", "0.00056"]], [["293.15"], ["0.0004"], ["101"], ["1.37729", "0.00056"]], [["293.15"], ["0.0009"], ["101"], ["1.37736", "0.00057"]], [["293.15"], ["0.0014"], ["101"], ["1.37743", "0.00054"]], [["293.15"], ["0.0024"], ["101"], ["1.37752", "0.00053"]], [["293.15"], ["0.003"], ["101"], ["1.37772", "0.00057"]], [["293.15"], ["0.3513"], ["101"], ["1.41129", "0.00049"]], [["293.15"], ["0.4011"], ["101"], ["1.41393", "0.00045"]], [["293.15"], ["0.5057"], ["101"], ["1.41743", "0.00045"]], [["293.15"], ["0.5991"], ["101"], ["1.41896", "0.00049"]], [["293.15"], ["0.696"], ["101"], ["1.42004", "0.00052"]], [["293.15"], ["0.7988"], ["101"], ["1.42137", "0.00052"]], [["293.15"], ["0.9035"], ["101"], ["1.42302", "0.00052"]], [["293.15"], ["0.9931"], ["101"], ["1.42426", "0.00056"]], [["293.15"], ["1"], ["101"], ["1.4244", "0.00058"]], [["298.15"], ["0"], ["101"], ["1.37496", "0.00057"]], [["298.15"], ["0.0004"], ["101"], ["1.37519", "0.00057"]], [["298.15"], ["0.0009"], ["101"], ["1.3752", "0.00057"]], [["298.15"], ["0.0014"], ["101"], ["1.37546", "0.00056"]], [["298.15"], ["0.0024"], ["101"], ["1.37562", "0.00056"]], [["298.15"], ["0.003"], ["101"], ["1.37559", "0.00056"]], [["298.15"], ["0.0053"], ["101"], ["1.37596", "0.00055"]], [["298.15"], ["0.3036"], ["101"], ["1.40657", "0.00048"]], [["298.15"], ["0.3513"], ["101"], ["1.40992", "0.00049"]], [["298.15"], ["0.4011"], ["101"], ["1.41265", "0.00049"]], [["298.15"], ["0.5057"], ["101"], ["1.41622", "0.0005"]], [["298.15"], ["0.5991"], ["101"], ["1.41775", "0.00049"]], [["298.15"], ["0.696"], ["101"], ["1.41888", "0.00051"]], [["298.15"], ["0.7988"], ["101"], ["1.42042", "0.00051"]], [["298.15"], ["0.9035"], ["101"], ["1.42216", "0.00052"]], [["298.15"], ["0.9931"], ["101"], ["1.42309", "0.00056"]], [["298.15"], ["1"], ["101"], ["1.42302", "0.00058"]], [["303.15"], ["0"], ["101"], ["1.37278", "0.00057"]], [["303.15"], ["0.0004"], ["101"], ["1.37302", "0.00057"]], [["303.15"], ["0.0009"], ["101"], ["1.37301", "0.00057"]], [["303.15"], ["0.0014"], ["101"], ["1.37322", "0.0006"]], [["303.15"], ["0.0024"], ["101"], ["1.37336", "0.00059"]], [["303.15"], ["0.003"], ["101"], ["1.37353", "0.00057"]], [["303.15"], ["0.0053"], ["101"], ["1.37386", "0.00056"]], [["303.15"], ["0.0098"], ["101"], ["1.37475", "0.00056"]], [["303.15"], ["0.2531"], ["101"], ["1.40116", "0.00048"]], [["303.15"], ["0.3036"], ["101"], ["1.40528", "0.0005"]], [["303.15"], ["0.3513"], ["101"], ["1.40861", "0.00051"]], [["303.15"], ["0.4011"], ["101"], ["1.41146", "0.00054"]], [["303.15"], ["0.5057"], ["101"], ["1.41501", "0.00055"]], [["303.15"], ["0.5991"], ["101"], ["1.4168", "0.00051"]], [["303.15"], ["0.696"], ["101"], ["1.41792", "0.00049"]], [["303.15"], ["0.7988"], ["101"], ["1.4195", "0.00051"]], [["303.15"], ["0.9035"], ["101"], ["1.42128", "0.00055"]], [["303.15"], ["0.9931"], ["101"], ["1.42192", "0.00056"]], [["303.15"], ["1"], ["101"], ["1.42165", "0.00058"]]], "solvent": null, "footer": "", "expmeth": "Standard Abbe refractometry", "constr": [], "ref": {"full": "Pereiro, A. B.; Rodriguez, A. (2008) Phys. Chem. Liq. 46(2), 172-184.", "title": "Binary mixtures containing OMIM PF6: density, speed of sound, refractive index and LLE with hexane, heptane and 2-propanol at several temperatures"}, "phases": ["Liquid"]}