{"constr": [], "ref": {"full": "Corderi, S.; Gonzalez, E. J.; Calvar, N.; Dominguez, A. (2012) J. Chem. Thermodyn. 53, 60-66.", "title": "Application of [HMim][NTf2], [HMim][TfO] and [BMim][TfO] ionic liquids on the extraction of toluene from alkanes: Effect of the anion and the alkyl chain length of the cation on the LLE"}, "phases": ["Liquid"], "components": [{"sample": [["Source:", "commercial source"], ["Purification:", "stated by supplier"], ["Initial purity:", "99 mass %"], ["Final purity:", "0.00052 water mass %;0.00006 halide impurity mass %"]], "idout": "ABIrWy", "mw": "316.34", "formula": "C<SUB>11</SUB>H<SUB>19</SUB>F<SUB>3</SUB>N<SUB>2</SUB>O<SUB>3</SUB>S", "name": "1-hexyl-3-methylimidazolium trifluoromethanesulfonate"}], "title": "Refraction, surface tension, and speed of sound: Refractive index (Na D-line)", "dhead": [["Temperature, K", null], ["Pressure, kPa", null], ["Refractive index (Na D-line)", "Liquid"]], "data": [[["303.15"], ["101.325"], ["1.43926", "0.00037"]]], "solvent": null, "footer": "", "expmeth": "Standard Abbe refractometry"}