{"expmeth": "Standard Abbe refractometry", "data": [[["283.1"], ["101.325"], ["1.4241", "0.0033"]], [["293.15"], ["101.325"], ["1.4216", "0.0033"]], [["303.15"], ["101.325"], ["1.4191", "0.0033"]], [["313.15"], ["101.325"], ["1.416", "0.0033"]], [["323.15"], ["101.325"], ["1.4134", "0.0033"]], [["333.15"], ["101.325"], ["1.4108", "0.0033"]], [["343.15"], ["101.325"], ["1.4085", "0.0033"]], [["353.15"], ["101.325"], ["1.4058", "0.0033"]], [["363.15"], ["101.325"], ["1.4035", "0.0033"]]], "solvent": null, "footer": "", "dhead": [["Temperature, K", null], ["Pressure, kPa", null], ["Refractive index (Na D-line)", "Liquid"]], "components": [{"mw": "422.40", "idout": "ABdMNo", "name": "1-butyl-1-methylpyrrolidinium bis[(trifluoromethyl)sulfonyl]imide", "formula": "C<SUB>11</SUB>H<SUB>20</SUB>F<SUB>6</SUB>N<SUB>2</SUB>O<SUB>4</SUB>S<SUB>2</SUB>", "sample": [["Source:", "commercial source"], ["Purification:", "not known"], ["Purity:", "96 mass %"]]}], "title": "Refraction, surface tension, and speed of sound: Refractive index (Na D-line)", "phases": ["Liquid"], "constr": [], "ref": {"full": "Shamsipur, M.; Beigi, A. A. M.; Teymouri, M.; Pourmortazavi, S. M.; Irandoust, M. (2010) J. Mol. Liq. 157, 43-50.", "title": "Physical and electrochemical properties of ionic liquids 1-ethyl-3-methylimidazolium  tetrafluoroborate, 1-butyl-3-methylimidazolium trifluoromethanesulfonate and  1-butyl-1-methylpyrrolidinium bis(trifluoromethylsulfonyl)imide"}}