{"title": "Refraction, surface tension, and speed of sound: Refractive index (Na D-line)", "components": [{"sample": [["Source:", "commercial source"], ["Purification:", "stated by supplier"], ["Purity:", "99 mass %"], ["Purity analysis:", "dried by vacuum heating"]], "formula": "NNaO<SUB>3</SUB>", "name": "sodium nitrate", "idout": "AAQRpw", "mw": "84.99"}, {"mw": "18.02", "idout": "AADYJk", "formula": "H<SUB>2</SUB>O", "name": "water", "sample": [["Purification:", "estimated by the compiler"], ["Purity:", "99.9 mass %(unspecified)"]]}, {"sample": [["Source:", "commercial source"], ["Purification:", "stated by supplier"], ["Purity:", "99 mol %"], ["Purity analysis:", "dried by vacuum heating"]], "name": "1-butyl-3-methylimidazolium chloride", "formula": "C<SUB>8</SUB>H<SUB>15</SUB>ClN<SUB>2</SUB>", "mw": "174.67", "idout": "AAherF"}], "dhead": [["Weight fraction of 1-butyl-3-methylimidazolium chloride", "Liquid"], ["Weight fraction of sodium nitrate", "Liquid"], ["Pressure, kPa", null], ["Temperature, K", null], ["Refractive index (Na D-line)", "Liquid"]], "footer": "", "data": [[["0"], ["0.4718"], ["101"], ["298.15"], ["1.38955", "0.00033"]], [["0.0507"], ["0.3757"], ["101"], ["298.15"], ["1.39498", "0.00033"]], [["0.1151"], ["0.2918"], ["101"], ["298.15"], ["1.39939", "0.00033"]], [["0.1902"], ["0.2197"], ["101"], ["298.15"], ["1.40563", "0.00033"]], [["0.2715"], ["0.1646"], ["101"], ["298.15"], ["1.41282", "0.00033"]], [["0.3567"], ["0.1219"], ["101"], ["298.15"], ["1.42125", "0.00033"]], [["0.442"], ["0.0932"], ["101"], ["298.15"], ["1.42956", "0.00034"]], [["0.5272"], ["0.0733"], ["101"], ["298.15"], ["1.43764", "0.00034"]], [["0.6133"], ["0.0564"], ["101"], ["298.15"], ["1.45025", "0.00035"]], [["0.7"], ["0.0426"], ["101"], ["298.15"], ["1.46769", "0.00035"]], [["0.7871"], ["0.0312"], ["101"], ["298.15"], ["1.48706", "0.00036"]]], "solvent": null, "expmeth": "Standard Abbe refractometry", "ref": {"title": "Phase behavior of [Cnmim]Cl/Br (n=2, 4, 6, 8) +MNO3(M=Na, K, Rb, Cs) + H2O systems at 298.15 K", "full": "Li, X.; Li, S.; Zhai, Q.; Jiang, Y.; Hu, M. (2016) J. Mol. Liq. 215, 237-243."}, "constr": [], "phases": ["Liquid"]}