{"constr": [], "ref": {"title": "Article  Physical and Excess Properties of Eight Binary Mixtures Containing Water and Ionic Liquids", "full": "Gonzalez, E. J.; Dominguez, A.; Macedo, E. A. (2012) J. Chem. Eng. Data 57(8), 2165-2176."}, "phases": ["Liquid"], "title": "Refraction, surface tension, and speed of sound: Refractive index (Na D-line)", "components": [{"mw": "288.29", "idout": "ABDWVo", "formula": "C<SUB>9</SUB>H<SUB>15</SUB>F<SUB>3</SUB>N<SUB>2</SUB>O<SUB>3</SUB>S", "name": "1-butyl-3-methylimidazolium trifluoromethanesulfonate", "sample": [["Source:", "commercial source"], ["Purification:", "stated by supplier"], ["Initial purity:", "99 mass %"], ["Final purity:", "0.017 water mass %(dried by vacuum heating)"]]}], "dhead": [["Temperature, K", null], ["Pressure, kPa", null], ["Refractive index (Na D-line)", "Liquid"]], "footer": "", "data": [[["288.15"], ["101"], ["1.44032", "0.00053"]], [["288.15"], ["101.325"], ["1.44032", "0.00053"]], [["298.15"], ["101"], ["1.43755", "0.00053"]], [["298.15"], ["101.325"], ["1.43755", "0.00053"]], [["308.15"], ["101"], ["1.43475", "0.00053"]], [["308.15"], ["101.325"], ["1.43475", "0.00053"]]], "solvent": null, "expmeth": "Standard Abbe refractometry"}