{"ref": {"full": "Arce, A.; Rodil, E.; Soto, A. (2006) J. Solution Chem. 35, 63-78.", "title": "Physical and Excess Properties for Binary Mixtures of 1-Methyl-3-Octylimidazolium Tetrafluoroborate, [Omim][BF4], Ionic Liquid with Different Alcohols"}, "constr": [], "phases": ["Liquid"], "components": [{"sample": [["Source:", "commercial source"], ["Purification:", "stated by supplier"], ["Purity:", "99.8 mass %"]], "formula": "C<SUB>2</SUB>H<SUB>6</SUB>O", "name": "ethanol", "idout": "AAIsrh", "mw": "46.07"}, {"sample": [["Source:", "synthesized by the authors"], ["Initial purification:", "estimated by the compiler"], ["Initial purity:", "98 mass %"], ["Final purification:", "Karl Fischer titration;ion-selective electrode"], ["Final purity:", "0.0326 water mass %;0.75 halide impurity mass %(dried by vacuum heating)"]], "mw": "282.13", "idout": "ABCNhW", "formula": "C<SUB>12</SUB>H<SUB>23</SUB>BF<SUB>4</SUB>N<SUB>2</SUB>", "name": "1-methyl-3-octylimidazolium tetrafluoroborate"}], "title": "Refraction, surface tension, and speed of sound: Refractive index (Na D-line)", "dhead": [["Mole fraction of 1-methyl-3-octylimidazolium tetrafluoroborate", "Liquid"], ["Pressure, kPa", null], ["Temperature, K", null], ["Refractive index (Na D-line)", "Liquid"]], "data": [[["0.0517"], ["101"], ["298.15"], ["1.37489", "0.00032"]], [["0.0818"], ["101"], ["298.15"], ["1.38179", "0.00032"]], [["0.1822"], ["101"], ["298.15"], ["1.39805", "0.00033"]], [["0.2779"], ["101"], ["298.15"], ["1.40778", "0.00034"]], [["0.378"], ["101"], ["298.15"], ["1.41488", "0.00036"]], [["0.46"], ["101"], ["298.15"], ["1.41926", "0.00037"]], [["0.5474"], ["101"], ["298.15"], ["1.42304", "0.00039"]], [["0.5537"], ["101"], ["298.15"], ["1.42326", "0.00039"]], [["0.5636"], ["101"], ["298.15"], ["1.42362", "0.00039"]], [["0.6203"], ["101"], ["298.15"], ["1.4256", "0.00041"]], [["0.662"], ["101"], ["298.15"], ["1.42683", "0.00042"]], [["0.7749"], ["101"], ["298.15"], ["1.42973", "0.00045"]], [["0.9286"], ["101"], ["298.15"], ["1.43293", "0.00049"]]], "solvent": null, "footer": "", "expmeth": "Standard Abbe refractometry"}