{"constr": [], "ref": {"full": "Espiau, F.; Ortega, J.; Fernandez, L.; Wisniak, J. (2011) Ind. Eng. Chem. Res. 50, 12259-12270.", "title": "Liquid Liquid Equilibria in Binary Solutions Formed by [Pyridinium-Derived][F4B] Ionic Liquids and Alkanols: New Experimental Data and Validation of a Multiparametric Model for Correlating LLE Data"}, "phases": ["Liquid"], "components": [{"formula": "C<SUB>11</SUB>H<SUB>18</SUB>BF<SUB>4</SUB>N", "name": "1-hexylpyridinium tetrafluoroborate", "idout": "AAwOrj", "mw": "251.08", "sample": [["Source:", "commercial source"], ["Initial purification:", "stated by supplier"], ["Initial purity:", "99 mass %"], ["Final purification:", "Karl Fischer titration"], ["Final purity:", "0.035 water mass %(de-gassed by boiling or ultrasonically;de-gassed by evacuation)"]]}], "title": "Refraction, surface tension, and speed of sound: Refractive index (Na D-line)", "dhead": [["Temperature, K", null], ["Pressure, kPa", null], ["Refractive index (Na D-line)", "Liquid"]], "data": [[["298.15"], ["101.325"], ["1.4474", "0.0008"]]], "solvent": null, "footer": "", "expmeth": "Standard Abbe refractometry"}