{"title": "Refraction, surface tension, and speed of sound: Refractive index (Na D-line)", "components": [{"sample": [["Source:", "commercial source"], ["Purification:", "stated by supplier"], ["Purity:", "99 mass %"]], "idout": "AARGJq", "mw": "89.09", "name": "(S)-2-aminopropanoic acid", "formula": "C<SUB>3</SUB>H<SUB>7</SUB>NO<SUB>2</SUB>"}, {"formula": "C<SUB>17</SUB>H<SUB>24</SUB>N<SUB>2</SUB>O<SUB>3</SUB>", "name": "1-hexyl-3-methylimidazolium salicylate", "idout": "ABGbJt", "mw": "304.39", "sample": [["Source:", "synthesized by the authors"], ["Purification:", "NMR (proton)"], ["Purity:", "98 mass %"]]}, {"name": "water", "formula": "H<SUB>2</SUB>O", "mw": "18.02", "idout": "AADYJk", "sample": [["Source:", "commercial source"], ["Purification:", "estimated by the compiler"], ["Purity:", "99.9 mass %"]]}], "dhead": [["Solvent: MolaLity of 1-hexyl-3-methylimidazolium salicylate, mol/kg", "Liquid"], ["MolaLity of (S)-2-aminopropanoic acid, mol/kg", "Liquid"], ["Temperature, K", null], ["Pressure, kPa", null], ["Refractive index (Na D-line)", "Liquid"]], "footer": "", "solvent": "1-hexyl-3-methylimidazolium salicylate + water", "data": [[["0.0999"], ["0.0997"], ["298.15"], ["87"], ["1.3383", "0.004"]], [["0.0999"], ["0.149"], ["298.15"], ["87"], ["1.3396", "0.004"]], [["0.0999"], ["0.1997"], ["298.15"], ["87"], ["1.3402", "0.004"]], [["0.0999"], ["0.2484"], ["298.15"], ["87"], ["1.3409", "0.004"]], [["0.0999"], ["0.295"], ["298.15"], ["87"], ["1.3415", "0.004"]], [["0.0999"], ["0.3457"], ["298.15"], ["87"], ["1.3421", "0.004"]], [["0.0999"], ["0.3975"], ["298.15"], ["87"], ["1.3428", "0.004"]], [["0.0999"], ["0.449"], ["298.15"], ["87"], ["1.3435", "0.004"]], [["0.1989"], ["0.1041"], ["298.15"], ["87"], ["1.3435", "0.004"]], [["0.1989"], ["0.1495"], ["298.15"], ["87"], ["1.3448", "0.004"]], [["0.1989"], ["0.2287"], ["298.15"], ["87"], ["1.3454", "0.004"]], [["0.1989"], ["0.2509"], ["298.15"], ["87"], ["1.3464", "0.004"]], [["0.1989"], ["0.303"], ["298.15"], ["87"], ["1.3467", "0.004"]], [["0.1989"], ["0.3455"], ["298.15"], ["87"], ["1.3474", "0.004"]], [["0.1989"], ["0.3977"], ["298.15"], ["87"], ["1.3479", "0.004"]], [["0.1989"], ["0.432"], ["298.15"], ["87"], ["1.3486", "0.004"]], [["0.293"], ["0.099"], ["298.15"], ["87"], ["1.3482", "0.0041"]], [["0.293"], ["0.1547"], ["298.15"], ["87"], ["1.3496", "0.0041"]], [["0.293"], ["0.1997"], ["298.15"], ["87"], ["1.3504", "0.0041"]], [["0.293"], ["0.2557"], ["298.15"], ["87"], ["1.351", "0.004"]], [["0.293"], ["0.3"], ["298.15"], ["87"], ["1.3517", "0.0041"]], [["0.293"], ["0.3477"], ["298.15"], ["87"], ["1.3523", "0.0041"]], [["0.293"], ["0.3988"], ["298.15"], ["87"], ["1.3529", "0.0041"]], [["0.293"], ["0.447"], ["298.15"], ["87"], ["1.3536", "0.0041"]]], "expmeth": "Standard Abbe refractometry", "constr": [], "ref": {"title": "Thermophysical Properties of 1-Hexyl-3-methylimidazolium Salicylate as an Active Pharmaceutical Ingredient Ionic Liquid (API-IL) in Aqueous Solutions of Glycine and l-Alanine", "full": "Shekaari, Hemayat; Zafarani-Moattar, Mohammed Taghi; Mirheydari, Seyyedeh Narjes; Faraji, Saeid (2019) J. Chem. Eng. Data 64(1), 124-134."}, "phases": ["Liquid"]}