{"constr": [], "ref": {"title": "Physical Properties of Pure 1-Ethyl-3-methylimidazolium Ethylsulfate and Its Binary Mixtures with Ethanol and Water at Several Temperatures", "full": "Gomez, E.; Gonzalez, B.; Calvar, N.; Tojo, E.; Dominguez, A. (2006) J. Chem. Eng. Data 51(6), 2096-2102."}, "phases": ["Liquid"], "components": [{"sample": [["Source:", "commercial source"], ["Purification:", "estimated by the compiler"], ["Purity:", "99.9 mol %(fractional distillation)"]], "idout": "AADYJk", "mw": "18.02", "name": "water", "formula": "H<SUB>2</SUB>O"}, {"idout": "AAtWDT", "mw": "236.29", "formula": "C<SUB>8</SUB>H<SUB>16</SUB>N<SUB>2</SUB>O<SUB>4</SUB>S", "name": "1-ethyl-3-methylimidazolium ethyl sulfate", "sample": [["Source:", "synthesized by the authors"], ["Purification:", "NMR (proton);Karl Fischer titration"], ["Purity:", "99 mass %;0.03 water mass %(dried by vacuum heating)"]]}], "title": "Refraction, surface tension, and speed of sound: Refractive index (Na D-line)", "dhead": [["Temperature, K", null], ["Mole fraction of water", "Liquid"], ["Pressure, kPa", null], ["Refractive index (Na D-line)", "Liquid"]], "data": [[["298.15"], ["0"], ["101"], ["1.4794", "0.0014"]], [["298.15"], ["0.0715"], ["101"], ["1.47827", "0.0014"]], [["298.15"], ["0.2089"], ["101"], ["1.476", "0.0014"]], [["298.15"], ["0.3227"], ["101"], ["1.47344", "0.0014"]], [["298.15"], ["0.5041"], ["101"], ["1.46726", "0.0014"]], [["298.15"], ["0.5975"], ["101"], ["1.46243", "0.0014"]], [["298.15"], ["0.7441"], ["101"], ["1.44916", "0.0014"]], [["298.15"], ["0.854"], ["101"], ["1.42825", "0.0014"]], [["298.15"], ["0.9506"], ["101"], ["1.38383", "0.0014"]], [["298.15"], ["1"], ["101"], ["1.33251", "0.0014"]]], "solvent": null, "footer": "", "expmeth": "Standard Abbe refractometry"}