{"ref": {"full": "Greaves, T. L.; Weerawardena, A.; Fong, C.; Krodkiewska, I.; Drummond, C. J. (2006) J. Phys. Chem. B 110(45), 22479-22487.", "title": "Protic Ionic Liquids: Solvents with Tunable Phase Behavior and Physicochemical  Properties"}, "constr": [], "phases": ["Liquid"], "components": [{"sample": [["Source:", "synthesized by the authors"], ["Purification:", "Karl Fischer titration"], ["Purity:", "0.42 water mass %(dried by vacuum heating)"]], "formula": "C<SUB>2</SUB>H<SUB>7</SUB>NO<SUB>2</SUB>", "name": "methanaminium formate", "idout": "AAOqBl", "mw": "77.08"}], "title": "Refraction, surface tension, and speed of sound: Refractive index (Na D-line)", "dhead": [["Temperature, K", null], ["Pressure, kPa", null], ["Refractive index (Na D-line)", "Liquid"]], "data": [[["300.1"], ["101.325"], ["1.4336", "0.0016"]]], "solvent": null, "footer": "", "expmeth": "Standard Abbe refractometry"}