{"expmeth": "Standard Abbe refractometry", "data": [[["0"], ["298.15"], ["101"], ["1.37604", "0.00087"]], [["0.0579"], ["298.15"], ["101"], ["1.38671", "0.00088"]], [["0.0977"], ["298.15"], ["101"], ["1.3916", "0.00088"]], [["0.1906"], ["298.15"], ["101"], ["1.39962", "0.0009"]], [["0.2929"], ["298.15"], ["101"], ["1.40509", "0.00094"]], [["0.4037"], ["298.15"], ["101"], ["1.409", "0.00098"]], [["0.4995"], ["298.15"], ["101"], ["1.41154", "0.001"]], [["0.6006"], ["298.15"], ["101"], ["1.41341", "0.0011"]], [["0.7012"], ["298.15"], ["101"], ["1.41483", "0.0011"]], [["0.8036"], ["298.15"], ["101"], ["1.41607", "0.0012"]], [["0.9012"], ["298.15"], ["101"], ["1.41701", "0.0013"]], [["0.9483"], ["298.15"], ["101"], ["1.41741", "0.0013"]], [["1"], ["298.15"], ["101"], ["1.41787", "0.0013"]]], "solvent": null, "footer": "", "dhead": [["Mole fraction of 1-hexyl-3-methylimidazolium hexafluorophosphate", "Liquid"], ["Temperature, K", null], ["Pressure, kPa", null], ["Refractive index (Na D-line)", "Liquid"]], "components": [{"mw": "72.11", "idout": "AANtck", "formula": "C<SUB>4</SUB>H<SUB>8</SUB>O", "name": "butanone", "sample": [["Source:", "commercial source"], ["Purification:", "stated by supplier"], ["Purity:", "99.5 mass %"], ["Purity analysis:", "de-gassed by boiling or ultrasonically;molecular sieve treatment"]]}, {"sample": [["Source:", "synthesized by the authors"]], "mw": "312.24", "idout": "ABICIG", "formula": "C<SUB>10</SUB>H<SUB>19</SUB>F<SUB>6</SUB>N<SUB>2</SUB>P", "name": "1-hexyl-3-methylimidazolium hexafluorophosphate"}], "title": "Refraction, surface tension, and speed of sound: Refractive index (Na D-line)", "phases": ["Liquid"], "constr": [], "ref": {"full": "Pereiro, A. B.; Tojo, E.; Rodriguez, A.; Canosa, J.; Tojo, J. (2006) J. Chem. Thermodyn. 38(6), 651-661.", "title": "Properties of ionic liquid HMIMPF6 with carbonates, ketones and alkyl acetates"}}