{"ref": {"full": "Dzida, M.; Musial, M.; Zorebski, E.; Zorebski, M.; Jacquemin, J.; Goodrich, P.; Wojnarowska, Z.; Paluch, M. (2019) J. Mol. Liq. 278, 401-412.", "title": "Comparative study of effect of alkyl chain length on thermophysical characteristics of five N-alkylpyridinium bis(trifluoromethylsulfonyl)imides with selected imidazolium-based ionic liquids"}, "constr": [], "phases": ["Liquid"], "title": "Refraction, surface tension, and speed of sound: Refractive index (Na D-line)", "components": [{"sample": [["Source:", "synthesized by the authors"], ["Purification:", "NMR (proton);Karl Fischer titration;ion chromatography"], ["Purity:", "98 mass %;0.005 water mass %;0.002 halide impurity mass %(dried by vacuum heating;solvent extraction)"]], "idout": "ABWiWC", "mw": "388.30", "name": "1-ethylpyridinium bis[(trifluoromethyl)sulfonyl]imide", "formula": "C<SUB>9</SUB>H<SUB>10</SUB>F<SUB>6</SUB>N<SUB>2</SUB>O<SUB>4</SUB>S<SUB>2</SUB>"}], "dhead": [["Temperature, K", null], ["Pressure, kPa", null], ["Refractive index (Na D-line)", "Liquid"]], "footer": "", "data": [[["298.15"], ["101.325"], ["1.441", "0.0006"]]], "solvent": null, "expmeth": "Standard Abbe refractometry"}