{"ref": {"title": "Modeling the Temperature-Dependent Material Dispersion of Imidazolium-Based Ionic Liquids in the VIS-NIR", "full": "Arosa, Y.; Algnamat, B. S.; Rodriguez, C. D.; Lago, E. L.; Varela, L. M.; de la Fuente, R. (2018) J. Phys. Chem. C 122(51), 29470-29478."}, "constr": [], "phases": ["Liquid"], "components": [{"sample": [["Source:", "commercial source"], ["Purity analysis:", "dried by vacuum heating"]], "name": "1-ethyl-3-methylimidazolium bis((trifluoromethyl)sulfonyl)imide", "formula": "C<SUB>8</SUB>H<SUB>11</SUB>F<SUB>6</SUB>N<SUB>3</SUB>O<SUB>4</SUB>S<SUB>2</SUB>", "mw": "391.30", "idout": "ABXNZH"}], "title": "Refraction, surface tension, and speed of sound: Refractive index", "dhead": [["Temperature, K", null], ["Pressure, kPa", null], ["Wavelength, A", "Liquid"], ["Refractive index", "Liquid"]], "data": [[["298.15"], ["100"], ["430.1"], ["1.4334", "0.0012"]], [["298.15"], ["100"], ["486.1"], ["1.4284", "0.0012"]], [["298.15"], ["100"], ["589.6"], ["1.4226", "0.0012"]], [["298.15"], ["100"], ["656.3"], ["1.4203", "0.0012"]], [["298.15"], ["100"], ["822.7"], ["1.4165", "0.0012"]], [["303.15"], ["100"], ["430.1"], ["1.4319", "0.0012"]], [["303.15"], ["100"], ["486.1"], ["1.4269", "0.0012"]], [["303.15"], ["100"], ["589.6"], ["1.4212", "0.0012"]], [["303.15"], ["100"], ["656.3"], ["1.419", "0.0012"]], [["303.15"], ["100"], ["822.7"], ["1.4154", "0.0012"]], [["308.15"], ["100"], ["430.1"], ["1.4304", "0.0012"]], [["308.15"], ["100"], ["486.1"], ["1.4254", "0.0012"]], [["308.15"], ["100"], ["589.6"], ["1.4199", "0.0012"]], [["308.15"], ["100"], ["656.3"], ["1.4176", "0.0012"]], [["308.15"], ["100"], ["822.7"], ["1.4141", "0.0012"]], [["313.15"], ["100"], ["430.1"], ["1.4289", "0.0012"]], [["313.15"], ["100"], ["486.1"], ["1.4239", "0.0012"]], [["313.15"], ["100"], ["589.6"], ["1.4183", "0.0012"]], [["313.15"], ["100"], ["656.3"], ["1.416", "0.0012"]], [["313.15"], ["100"], ["822.7"], ["1.4125", "0.0012"]], [["318.15"], ["100"], ["430.1"], ["1.4271", "0.0012"]], [["318.15"], ["100"], ["486.1"], ["1.4222", "0.0012"]], [["318.15"], ["100"], ["589.6"], ["1.4167", "0.0012"]], [["318.15"], ["100"], ["656.3"], ["1.4145", "0.0012"]], [["318.15"], ["100"], ["822.7"], ["1.4111", "0.0012"]], [["323.15"], ["100"], ["430.1"], ["1.4257", "0.0012"]], [["323.15"], ["100"], ["486.1"], ["1.4207", "0.0012"]], [["323.15"], ["100"], ["589.6"], ["1.4152", "0.0012"]], [["323.15"], ["100"], ["656.3"], ["1.413", "0.0012"]], [["323.15"], ["100"], ["822.7"], ["1.4095", "0.0012"]]], "solvent": null, "footer": "", "expmeth": "Interferometry"}