{"title": "Refraction, surface tension, and speed of sound: Refractive index (Na D-line)", "components": [{"sample": [["Source:", "commercial source"], ["Purification:", "estimated by the compiler;Karl Fischer titration"], ["Purity:", "98 mass %;0.015 water mass %(dried by vacuum heating)"]], "name": "1-butyl-3-methylimidazolium acetate", "formula": "C<SUB>10</SUB>H<SUB>18</SUB>N<SUB>2</SUB>O<SUB>2</SUB>", "idout": "AAmGQS", "mw": "198.27"}], "dhead": [["Temperature, K", null], ["Pressure, kPa", null], ["Refractive index (Na D-line)", "Liquid"]], "footer": "", "data": [[["293.15"], ["101.325"], ["1.49481", "0.0008"]], [["298.15"], ["101.325"], ["1.49381", "0.00083"]], [["313.15"], ["101.325"], ["1.48879", "0.00083"]], [["333.15"], ["101.325"], ["1.48377", "0.00081"]]], "solvent": null, "expmeth": "Standard Abbe refractometry", "ref": {"title": "Densities and refractive indices of imidazolium- and phosphonium-based ionic liquids: Effect of temperature, alkyl chain length, and anion", "full": "Tariq, M.; Forte, P. A. S.; Gomes, M. F. C.; Lopes, J. N. C.; Rebelo, L. P. N. (2009) J. Chem. Thermodyn. 41(6), 790-798."}, "constr": [], "phases": ["Liquid"]}