{"constr": [], "ref": {"full": "Alkhaldi, K. H. A. E.; Al-Jimaz, A. S.; AlTuwaim, M. S. (2017) J. Chem. Thermodyn. 110, 175-185.", "title": "Comparative study of physical properties of binary mixtures of halogen free ionic liquids with alcohols"}, "phases": ["Liquid"], "title": "Refraction, surface tension, and speed of sound: Refractive index (Na D-line)", "components": [{"idout": "AALcLI", "mw": "60.10", "name": "propan-1-ol", "formula": "C<SUB>3</SUB>H<SUB>8</SUB>O", "sample": [["Source:", "commercial source"], ["Initial purification:", "stated by supplier"], ["Initial purity:", "99.7 mass %"], ["Final purification:", "Karl Fischer titration"], ["Final purity:", "0.0180 water mass %"]]}, {"sample": [["Source:", "commercial source"], ["Initial purification:", "stated by supplier"], ["Initial purity:", "98 mass %"], ["Final purification:", "Karl Fischer titration"], ["Final purity:", "0.0470 water mass %"]], "idout": "AAqmVN", "mw": "222.26", "formula": "C<SUB>7</SUB>H<SUB>14</SUB>N<SUB>2</SUB>O<SUB>4</SUB>S", "name": "1-ethyl-3-methylimidazolium methyl sulfate"}], "dhead": [["Temperature, K", null], ["Mole fraction of 1-ethyl-3-methylimidazolium methyl sulfate", "Liquid"], ["Pressure, kPa", null], ["Refractive index (Na D-line)", "Liquid"]], "footer": "", "data": [[["298"], ["0"], ["101.3"], ["1.383", "0.01"]], [["298"], ["0.059"], ["101.3"], ["1.394", "0.01"]], [["298"], ["0.228"], ["101.3"], ["1.419", "0.01"]], [["298"], ["0.375"], ["101.3"], ["1.435", "0.01"]], [["298"], ["0.524"], ["101.3"], ["1.448", "0.01"]], [["298"], ["0.72"], ["101.3"], ["1.463", "0.01"]], [["298"], ["0.874"], ["101.3"], ["1.473", "0.01"]], [["298"], ["1"], ["101.3"], ["1.48", "0.01"]], [["303"], ["0"], ["101.3"], ["1.382", "0.01"]], [["303"], ["0.059"], ["101.3"], ["1.393", "0.01"]], [["303"], ["0.228"], ["101.3"], ["1.417", "0.01"]], [["303"], ["0.375"], ["101.3"], ["1.433", "0.01"]], [["303"], ["0.524"], ["101.3"], ["1.446", "0.01"]], [["303"], ["0.72"], ["101.3"], ["1.461", "0.01"]], [["303"], ["0.874"], ["101.3"], ["1.471", "0.01"]], [["303"], ["1"], ["101.3"], ["1.479", "0.01"]], [["308"], ["0"], ["101.3"], ["1.38", "0.01"]], [["308"], ["0.059"], ["101.3"], ["1.391", "0.01"]], [["308"], ["0.228"], ["101.3"], ["1.415", "0.01"]], [["308"], ["0.375"], ["101.3"], ["1.431", "0.01"]], [["308"], ["0.524"], ["101.3"], ["1.444", "0.01"]], [["308"], ["0.72"], ["101.3"], ["1.459", "0.01"]], [["308"], ["0.874"], ["101.3"], ["1.469", "0.01"]], [["308"], ["1"], ["101.3"], ["1.478", "0.01"]], [["313"], ["0"], ["101.3"], ["1.378", "0.01"]], [["313"], ["0.059"], ["101.3"], ["1.389", "0.01"]], [["313"], ["0.228"], ["101.3"], ["1.413", "0.01"]], [["313"], ["0.375"], ["101.3"], ["1.428", "0.01"]], [["313"], ["0.524"], ["101.3"], ["1.442", "0.01"]], [["313"], ["0.72"], ["101.3"], ["1.457", "0.01"]], [["313"], ["0.874"], ["101.3"], ["1.468", "0.01"]], [["313"], ["1"], ["101.3"], ["1.476", "0.01"]]], "solvent": null, "expmeth": "Standard Abbe refractometry"}