{"constr": [], "ref": {"title": "Separation of Ethanol-Heptane Azeotropic Mixtures by Solvent Extraction with an Ionic Liquid", "full": "Pereiro, A. B.; Rodriguez, A. (2009) Ind. Eng. Chem. Res. 48(3), 1579-1585."}, "phases": ["Liquid"], "components": [{"name": "1,3-dimethylimidazolium methylsulfate", "formula": "C<SUB>6</SUB>H<SUB>12</SUB>N<SUB>2</SUB>O<SUB>4</SUB>S", "mw": "208.23", "idout": "AAoCnc", "sample": [["Purity analysis:", "unspecified"]]}], "title": "Refraction, surface tension, and speed of sound: Refractive index (Na D-line)", "dhead": [["Temperature, K", null], ["Pressure, kPa", null], ["Refractive index (Na D-line)", "Liquid"]], "solvent": null, "data": [[["298.15"], ["101.325"], ["1.4827", "0.0011"]]], "footer": "", "expmeth": "Standard Abbe refractometry"}