{"title": "Refraction, surface tension, and speed of sound: Refractive index (Na D-line)", "components": [{"name": "ethyl acetate", "formula": "C<SUB>4</SUB>H<SUB>8</SUB>O<SUB>2</SUB>", "idout": "AAQxSq", "mw": "88.11", "sample": [["Source:", "commercial source"], ["Initial purification:", "stated by supplier"], ["Initial purity:", "99.5 mass %"], ["Final purification:", "gas chromatography"], ["Final purity:", "99.6 mass %(dried with chemical reagent;fractional distillation)"]]}, {"formula": "C<SUB>10</SUB>H<SUB>19</SUB>F<SUB>6</SUB>N<SUB>2</SUB>P", "name": "1-hexyl-3-methylimidazolium hexafluorophosphate", "idout": "ABICIG", "mw": "312.24", "sample": [["Source:", "synthesized by the authors"], ["Purification:", "Karl Fischer titration;estimated by the compiler"], ["Purity:", "0.0042 water mass %;97 mass %(dried by vacuum heating;solvent extraction)"]]}], "dhead": [["Temperature, K", null], ["Mole fraction of 1-hexyl-3-methylimidazolium hexafluorophosphate", "Liquid"], ["Pressure, kPa", null], ["Refractive index (Na D-line)", "Liquid"]], "footer": "", "data": [[["293.15"], ["0"], ["101"], ["1.37237", "0.0008"]], [["293.15"], ["0.09053"], ["101"], ["1.38737", "0.00081"]], [["293.15"], ["0.17512"], ["101"], ["1.39825", "0.00082"]], [["293.15"], ["0.27483"], ["101"], ["1.40432", "0.00083"]], [["293.15"], ["0.36383"], ["101"], ["1.40809", "0.00084"]], [["293.15"], ["0.47473"], ["101"], ["1.41069", "0.00086"]], [["293.15"], ["0.59594"], ["101"], ["1.41247", "0.00089"]], [["293.15"], ["0.69876"], ["101"], ["1.41456", "0.00091"]], [["293.15"], ["0.77818"], ["101"], ["1.41641", "0.00094"]], [["293.15"], ["0.87843"], ["101"], ["1.41817", "0.00096"]], [["293.15"], ["0.9562"], ["101"], ["1.42009", "0.00099"]], [["293.15"], ["1"], ["101"], ["1.42064", "0.001"]], [["298.15"], ["0"], ["101"], ["1.36982", "0.0008"]], [["298.15"], ["0.09053"], ["101"], ["1.38598", "0.00081"]], [["298.15"], ["0.17512"], ["101"], ["1.39706", "0.00082"]], [["298.15"], ["0.27483"], ["101"], ["1.40351", "0.00083"]], [["298.15"], ["0.36383"], ["101"], ["1.40694", "0.00084"]], [["298.15"], ["0.47473"], ["101"], ["1.40989", "0.00086"]], [["298.15"], ["0.59594"], ["101"], ["1.41194", "0.00089"]], [["298.15"], ["0.69876"], ["101"], ["1.41432", "0.00091"]], [["298.15"], ["0.77818"], ["101"], ["1.41609", "0.00094"]], [["298.15"], ["0.87843"], ["101"], ["1.41813", "0.00096"]], [["298.15"], ["0.9562"], ["101"], ["1.41886", "0.00099"]], [["298.15"], ["1"], ["101"], ["1.41935", "0.001"]], [["303.15"], ["0"], ["101"], ["1.36727", "0.0008"]], [["303.15"], ["0.09053"], ["101"], ["1.38515", "0.00081"]], [["303.15"], ["0.17512"], ["101"], ["1.39611", "0.00082"]], [["303.15"], ["0.27483"], ["101"], ["1.402", "0.00083"]], [["303.15"], ["0.36383"], ["101"], ["1.40594", "0.00084"]], [["303.15"], ["0.47473"], ["101"], ["1.40899", "0.00086"]], [["303.15"], ["0.59594"], ["101"], ["1.41159", "0.00089"]], [["303.15"], ["0.69876"], ["101"], ["1.41357", "0.00091"]], [["303.15"], ["0.77818"], ["101"], ["1.41526", "0.00094"]], [["303.15"], ["0.87843"], ["101"], ["1.41735", "0.00096"]], [["303.15"], ["0.9562"], ["101"], ["1.41756", "0.00099"]], [["303.15"], ["1"], ["101"], ["1.41806", "0.001"]], [["308.15"], ["0"], ["101"], ["1.36473", "0.0008"]], [["308.15"], ["0.09053"], ["101"], ["1.38415", "0.00081"]], [["308.15"], ["0.17512"], ["101"], ["1.39519", "0.00082"]], [["308.15"], ["0.27483"], ["101"], ["1.40105", "0.00083"]], [["308.15"], ["0.36383"], ["101"], ["1.40487", "0.00084"]], [["308.15"], ["0.47473"], ["101"], ["1.40784", "0.00086"]], [["308.15"], ["0.59594"], ["101"], ["1.41107", "0.00089"]], [["308.15"], ["0.69876"], ["101"], ["1.41273", "0.00091"]], [["308.15"], ["0.77818"], ["101"], ["1.41451", "0.00094"]], [["308.15"], ["0.87843"], ["101"], ["1.41622", "0.00096"]], [["308.15"], ["0.9562"], ["101"], ["1.41629", "0.00099"]], [["308.15"], ["1"], ["101"], ["1.41676", "0.001"]], [["313.15"], ["0"], ["101"], ["1.36219", "0.0008"]], [["313.15"], ["0.09053"], ["101"], ["1.38344", "0.00081"]], [["313.15"], ["0.17512"], ["101"], ["1.39414", "0.00082"]], [["313.15"], ["0.27483"], ["101"], ["1.40023", "0.00083"]], [["313.15"], ["0.36383"], ["101"], ["1.40397", "0.00084"]], [["313.15"], ["0.47473"], ["101"], ["1.40699", "0.00086"]], [["313.15"], ["0.59594"], ["101"], ["1.40998", "0.00089"]], [["313.15"], ["0.69876"], ["101"], ["1.41182", "0.00091"]], [["313.15"], ["0.77818"], ["101"], ["1.41389", "0.00094"]], [["313.15"], ["0.87843"], ["101"], ["1.41498", "0.00096"]], [["313.15"], ["0.9562"], ["101"], ["1.41507", "0.00099"]], [["313.15"], ["1"], ["101"], ["1.41547", "0.001"]], [["318.15"], ["0"], ["101"], ["1.35968", "0.0008"]], [["318.15"], ["0.09053"], ["101"], ["1.38227", "0.00081"]], [["318.15"], ["0.17512"], ["101"], ["1.39389", "0.00082"]], [["318.15"], ["0.27483"], ["101"], ["1.39983", "0.00083"]], [["318.15"], ["0.36383"], ["101"], ["1.40319", "0.00084"]], [["318.15"], ["0.47473"], ["101"], ["1.40607", "0.00086"]], [["318.15"], ["0.59594"], ["101"], ["1.4091", "0.00089"]], [["318.15"], ["0.69876"], ["101"], ["1.41087", "0.00091"]], [["318.15"], ["0.77818"], ["101"], ["1.41215", "0.00094"]], [["318.15"], ["0.87843"], ["101"], ["1.41315", "0.00096"]], [["318.15"], ["0.9562"], ["101"], ["1.41377", "0.00099"]], [["318.15"], ["1"], ["101"], ["1.41417", "0.001"]], [["323.15"], ["0"], ["101"], ["1.35732", "0.0008"]], [["323.15"], ["0.09053"], ["101"], ["1.38202", "0.00081"]], [["323.15"], ["0.17512"], ["101"], ["1.39323", "0.00082"]], [["323.15"], ["0.27483"], ["101"], ["1.3989", "0.00083"]], [["323.15"], ["0.36383"], ["101"], ["1.40308", "0.00084"]], [["323.15"], ["0.47473"], ["101"], ["1.40548", "0.00086"]], [["323.15"], ["0.59594"], ["101"], ["1.4082", "0.00089"]], [["323.15"], ["0.69876"], ["101"], ["1.40995", "0.00091"]], [["323.15"], ["0.77818"], ["101"], ["1.41181", "0.00094"]], [["323.15"], ["0.87843"], ["101"], ["1.41252", "0.00096"]], [["323.15"], ["0.9562"], ["101"], ["1.41258", "0.00099"]], [["323.15"], ["1"], ["101"], ["1.41288", "0.001"]]], "solvent": null, "expmeth": "Standard Abbe refractometry", "ref": {"title": "Study on thermo physical and excess molar properties of binary systems of ionic liquids. I: [Cnmim][PF6] (n = 6, 8) and alkyl acetates", "full": "Malek, N. I.; Singh, A.; Surati, R.; Ijardar, S. P. (2014) J. Chem. Thermodyn. 74, 103-118."}, "constr": [], "phases": ["Liquid"]}