{"components": [{"mw": "416.35", "idout": "ABcDsh", "name": "2-methyl-1-propylpyridinium bis((trifluoromethyl)sulfonyl)amide", "formula": "C<SUB>11</SUB>H<SUB>14</SUB>F<SUB>6</SUB>N<SUB>2</SUB>O<SUB>4</SUB>S<SUB>2</SUB>", "sample": [["Source:", "commercial source"], ["Initial purification:", "stated by supplier"], ["Initial purity:", "99 mass %"], ["Final purification:", "Karl Fischer titration"], ["Final purity:", "0.035 water mass %(dried in a desiccator;dried by vacuum heating)"]]}], "title": "Refraction, surface tension, and speed of sound: Refractive index (Na D-line)", "dhead": [["Temperature, K", null], ["Pressure, kPa", null], ["Refractive index (Na D-line)", "Liquid"]], "data": [[["283.15"], ["101.325"], ["1.45357", "0.00037"]], [["285.65"], ["101.325"], ["1.45281", "0.00037"]], [["288.15"], ["101.325"], ["1.45206", "0.00037"]], [["290.65"], ["101.325"], ["1.45132", "0.00037"]], [["293.15"], ["101.325"], ["1.45056", "0.00037"]], [["295.65"], ["101.325"], ["1.44979", "0.00037"]], [["298.15"], ["101.325"], ["1.44905", "0.00037"]], [["300.65"], ["101.325"], ["1.44829", "0.00037"]], [["303.15"], ["101.325"], ["1.44754", "0.00037"]], [["305.65"], ["101.325"], ["1.44679", "0.00037"]], [["308.15"], ["101.325"], ["1.446", "0.00037"]], [["310.65"], ["101.325"], ["1.44525", "0.00037"]], [["313.15"], ["101.325"], ["1.44449", "0.00037"]], [["315.65"], ["101.325"], ["1.44374", "0.00037"]], [["318.15"], ["101.325"], ["1.44298", "0.00037"]], [["320.65"], ["101.325"], ["1.44224", "0.00037"]], [["323.15"], ["101.325"], ["1.44149", "0.00037"]], [["325.65"], ["101.325"], ["1.44073", "0.00037"]], [["328.15"], ["101.325"], ["1.43999", "0.00037"]], [["330.65"], ["101.325"], ["1.43925", "0.00037"]], [["333.15"], ["101.325"], ["1.43851", "0.00037"]], [["335.65"], ["101.325"], ["1.43741", "0.00037"]], [["338.15"], ["101.325"], ["1.43705", "0.00037"]]], "solvent": null, "footer": "", "expmeth": "Standard Abbe refractometry", "constr": [], "ref": {"title": "Experimental and Theoretical Study of Two Pyridinium-Based Ionic Liquids", "full": "Garcia-Mardones, M.; Bandres, I.; Lopez, M. C.; Gascon, I.; Lafuente, C. (2012) J. Solution Chem. 41, 1836-1852."}, "phases": ["Liquid"]}