{"dhead": [["Temperature, K", null], ["Pressure, kPa", null], ["Wavelength, A", "Liquid mixture 2"], ["Refractive index", "Liquid mixture 2"]], "components": [{"sample": [["Source:", "commercial source"], ["Purification:", "stated by supplier"], ["Purity:", "99 % (basis not specified)"], ["Purity analysis:", "molecular sieve treatment"]], "name": "1,4-butanediol", "formula": "C<SUB>4</SUB>H<SUB>10</SUB>O<SUB>2</SUB>", "mw": "90.12", "idout": "AARRzH"}, {"sample": [["Source:", "commercial source"], ["Purification:", "stated by supplier"], ["Purity:", "99 % (basis not specified)"]], "mw": "226.03", "idout": "AArYBF", "name": "1-butyl-3-methylimidazolium tetrafluoroborate", "formula": "C<SUB>8</SUB>H<SUB>15</SUB>BF<SUB>4</SUB>N<SUB>2</SUB>"}], "title": "Refraction, surface tension, and speed of sound: Refractive index", "expmeth": "Standard Abbe refractometry", "data": [[["290.349"], ["101"], ["632.8"], ["1.4253", "0.0004"]], [["292.947"], ["101"], ["632.8"], ["1.4252", "0.0004"]], [["294.517"], ["101"], ["632.8"], ["1.4251", "0.0004"]], [["296.094"], ["101"], ["632.8"], ["1.425", "0.0004"]], [["297.433"], ["101"], ["632.8"], ["1.4249", "0.0004"]], [["298.671"], ["101"], ["632.8"], ["1.4248", "0.0004"]], [["299.609"], ["101"], ["632.8"], ["1.4248", "0.0004"]], [["300.631"], ["101"], ["632.8"], ["1.4248", "0.0004"]], [["301.615"], ["101"], ["632.8"], ["1.4248", "0.0004"]], [["302.478"], ["101"], ["632.8"], ["1.4248", "0.0004"]], [["303.338"], ["101"], ["632.8"], ["1.4249", "0.0004"]], [["304.236"], ["101"], ["632.8"], ["1.425", "0.0004"]], [["304.915"], ["101"], ["632.8"], ["1.4251", "0.0004"]], [["305.626"], ["101"], ["632.8"], ["1.4252", "0.0004"]], [["306.233"], ["101"], ["632.8"], ["1.4254", "0.0004"]], [["306.77"], ["101"], ["632.8"], ["1.4256", "0.0004"]], [["307.34"], ["101"], ["632.8"], ["1.4258", "0.0004"]], [["307.752"], ["101"], ["632.8"], ["1.426", "0.0004"]], [["308.14"], ["101"], ["632.8"], ["1.4262", "0.0004"]], [["308.401"], ["101"], ["632.8"], ["1.4263", "0.0004"]], [["308.626"], ["101"], ["632.8"], ["1.4266", "0.0004"]], [["308.8"], ["101"], ["632.8"], ["1.4268", "0.0004"]], [["308.923"], ["101"], ["632.8"], ["1.427", "0.0004"]], [["309.028"], ["101"], ["632.8"], ["1.4271", "0.0004"]], [["309.123"], ["101"], ["632.8"], ["1.4273", "0.0004"]], [["309.215"], ["101"], ["632.8"], ["1.4274", "0.0004"]], [["309.295"], ["101"], ["632.8"], ["1.4276", "0.0004"]], [["309.387"], ["101"], ["632.8"], ["1.4278", "0.0004"]], [["309.456"], ["101"], ["632.8"], ["1.4281", "0.0004"]], [["309.501"], ["101"], ["632.8"], ["1.4283", "0.0004"]], [["309.54"], ["101"], ["632.8"], ["1.4285", "0.0004"]], [["309.558"], ["101"], ["632.8"], ["1.4287", "0.0004"]], [["309.58"], ["101"], ["632.8"], ["1.4289", "0.0004"]], [["309.609"], ["101"], ["632.8"], ["1.4294", "0.0004"]]], "solvent": null, "footer": "", "constr": [], "ref": {"title": "Liquid-Liquid Coexistence Curves of {x 1-Butyl-3-methylimidazolium Tetrafluoroborate + (1 - x) 1,3-Propanediol} and {x 1-Butyl-3-methylimidazolium Tetrafluoroborate + (1 - x) 1,4-Butanediol}", "full": "Lv, H.; Guo, Y.; An, X.; Sheng, W. (2010) J. Chem. Eng. Data 55(7), 2482-2488."}, "phases": ["Liquid mixture 2", "Liquid mixture 1"]}