{"ref": {"full": "Mohammed, F.; Qasim, M.; Aidan, A. A.; Darwish, N. A. (2018) J. Mol. Liq. 264, 534-542.", "title": "Measurement and correlation of isobaric binary vapor-liquid equilibria for water and 2-propanol each with 1-butyl-1-methypyrrolidinium chloride and 1-butyl-1-methylpyrrolidinium trifluoromethanesulfonate"}, "constr": [], "phases": ["Liquid"], "title": "Refraction, surface tension, and speed of sound: Refractive index (Na D-line)", "components": [{"sample": [["Source:", "commercial source"], ["Purification:", "estimated by the compiler"], ["Purity:", "99.5 mass %"]], "idout": "AADYJk", "mw": "18.02", "name": "water", "formula": "H<SUB>2</SUB>O"}, {"sample": [["Source:", "commercial source"], ["Initial purification:", "stated by supplier"], ["Initial purity:", "98 mass %"], ["Final purification:", "Karl Fischer titration"], ["Final purity:", "0.01 water mass %"]], "mw": "291.33", "idout": "ABEBwg", "formula": "C<SUB>10</SUB>H<SUB>20</SUB>F<SUB>3</SUB>NO<SUB>3</SUB>S", "name": "1-butyl-1-methylpyrrolidinium trifluoromethanesulfonate"}], "dhead": [["Weight fraction of 1-butyl-1-methylpyrrolidinium trifluoromethanesulfonate", "Liquid"], ["Pressure, kPa", null], ["Temperature, K", null], ["Refractive index (Na D-line)", "Liquid"]], "footer": "", "data": [[["0"], ["100"], ["298.15"], ["1.3308", "0.002"]], [["0.063"], ["100"], ["298.15"], ["1.3367", "0.002"]], [["0.097"], ["100"], ["298.15"], ["1.3396", "0.002"]], [["0.212"], ["100"], ["298.15"], ["1.3505", "0.002"]], [["0.305"], ["100"], ["298.15"], ["1.3585", "0.002"]], [["0.403"], ["100"], ["298.15"], ["1.3672", "0.002"]], [["0.493"], ["100"], ["298.15"], ["1.3767", "0.002"]], [["0.587"], ["100"], ["298.15"], ["1.3854", "0.002"]], [["0.693"], ["100"], ["298.15"], ["1.3971", "0.002"]], [["0.804"], ["100"], ["298.15"], ["1.4087", "0.0021"]], [["0.898"], ["100"], ["298.15"], ["1.4204", "0.0021"]]], "solvent": null, "expmeth": "Standard Abbe refractometry"}