{"constr": [], "ref": {"title": "Critical phenomena in {bromobenzene + 1-hexyl-3- methylimidazolium bis(trifluoromethylsulfonyl)imide} binary solution", "full": "Tao, X.; Yin, T.; Xu, C.; Shen, W. (2016) Fluid Phase Equilib. 415, 184-192."}, "phases": ["Liquid"], "components": [{"sample": [["Source:", "commercial source"], ["Initial purification:", "stated by supplier"], ["Initial purity:", "99 mass %"], ["Final purification:", "Karl Fischer titration"], ["Final purity:", "0.016 water mass %(molecular sieve treatment)"]], "formula": "C<SUB>6</SUB>H<SUB>5</SUB>Br", "name": "bromobenzene", "mw": "157.01", "idout": "AAeKrl"}, {"formula": "C<SUB>12</SUB>H<SUB>19</SUB>F<SUB>6</SUB>N<SUB>3</SUB>O<SUB>4</SUB>S<SUB>2</SUB>", "name": "1-hexyl-3-methylimidazolium bis[(trifluoromethyl)sulfonyl]imide", "mw": "447.41", "idout": "ABiCtA", "sample": [["Source:", "commercial source"], ["Initial purification:", "stated by supplier"], ["Initial purity:", "99 mass %"], ["Final purification:", "Karl Fischer titration"], ["Final purity:", "0.041 water mass %(dried by vacuum heating)"]]}], "title": "Refraction, surface tension, and speed of sound: Refractive index (Na D-line)", "dhead": [["Temperature, K", null], ["Mole fraction of 1-hexyl-3-methylimidazolium bis[(trifluoromethyl)sulfonyl]imide", "Liquid"], ["Pressure, kPa", null], ["Refractive index (Na D-line)", "Liquid"]], "data": [[["282.971"], ["0.014"], ["100"], ["1.5558", "0.0013"]], [["282.971"], ["0.099"], ["100"], ["1.5287", "0.0013"]], [["284.531"], ["0.016"], ["100"], ["1.5545", "0.0013"]], [["284.531"], ["0.094"], ["100"], ["1.5291", "0.0013"]], [["285.727"], ["0.017"], ["100"], ["1.5534", "0.0013"]], [["285.727"], ["0.091"], ["100"], ["1.5294", "0.0013"]], [["287.529"], ["0.019"], ["100"], ["1.5516", "0.0013"]], [["287.529"], ["0.086"], ["100"], ["1.53", "0.0013"]], [["288.417"], ["0.021"], ["100"], ["1.5506", "0.0013"]], [["288.417"], ["0.083"], ["100"], ["1.5304", "0.0013"]], [["289.128"], ["0.022"], ["100"], ["1.5497", "0.0013"]], [["289.128"], ["0.08"], ["100"], ["1.5307", "0.0013"]], [["289.818"], ["0.024"], ["100"], ["1.5487", "0.0014"]], [["289.818"], ["0.077"], ["100"], ["1.5313", "0.0013"]], [["290.328"], ["0.026"], ["100"], ["1.5478", "0.0013"]], [["290.328"], ["0.074"], ["100"], ["1.5318", "0.0014"]], [["290.823"], ["0.027"], ["100"], ["1.547", "0.0013"]], [["290.823"], ["0.072"], ["100"], ["1.5324", "0.0013"]], [["291.158"], ["0.029"], ["100"], ["1.5462", "0.0013"]], [["291.158"], ["0.069"], ["100"], ["1.533", "0.0013"]], [["291.435"], ["0.03"], ["100"], ["1.5456", "0.0014"]], [["291.435"], ["0.067"], ["100"], ["1.5336", "0.0013"]], [["291.536"], ["0.031"], ["100"], ["1.5453", "0.0014"]], [["291.536"], ["0.066"], ["100"], ["1.5338", "0.0013"]], [["291.642"], ["0.031"], ["100"], ["1.5451", "0.0013"]], [["291.642"], ["0.065"], ["100"], ["1.5341", "0.0013"]], [["291.742"], ["0.032"], ["100"], ["1.5448", "0.0016"]], [["291.742"], ["0.064"], ["100"], ["1.5343", "0.0013"]], [["291.835"], ["0.033"], ["100"], ["1.5445", "0.0011"]], [["291.835"], ["0.063"], ["100"], ["1.5346", "0.0006"]], [["291.914"], ["0.033"], ["100"], ["1.5442", "0.0007"]], [["291.914"], ["0.062"], ["100"], ["1.5349", "0.0013"]], [["291.98"], ["0.034"], ["100"], ["1.5439", "0.002"]], [["291.98"], ["0.061"], ["100"], ["1.5351", "0.0015"]], [["292.037"], ["0.035"], ["100"], ["1.5436", "0.0024"]], [["292.037"], ["0.06"], ["100"], ["1.5354", "0.0015"]], [["292.082"], ["0.036"], ["100"], ["1.5433", "0.0012"]], [["292.082"], ["0.059"], ["100"], ["1.5356", "0.0009"]], [["292.154"], ["0.037"], ["100"], ["1.5428", "0.0011"]], [["292.154"], ["0.058"], ["100"], ["1.536", "0.0009"]], [["292.209"], ["0.038"], ["100"], ["1.5424", "0.0012"]], [["292.209"], ["0.056"], ["100"], ["1.5365", "0.0018"]], [["292.237"], ["0.039"], ["100"], ["1.5421", "0.0014"]], [["292.237"], ["0.055"], ["100"], ["1.5368", "0.0013"]], [["292.247"], ["0.039"], ["100"], ["1.5419", "0.001"]], [["292.247"], ["0.055"], ["100"], ["1.5369", "0.0011"]], [["292.262"], ["0.04"], ["100"], ["1.5416", "0.0013"]], [["292.262"], ["0.054"], ["100"], ["1.5371", "0.0014"]], [["292.274"], ["0.041"], ["100"], ["1.5414", "0.0014"]], [["292.274"], ["0.053"], ["100"], ["1.5373", "0.0013"]], [["292.289"], ["0.042"], ["100"], ["1.541", "0.0014"]], [["292.289"], ["0.052"], ["100"], ["1.5378", "0.0013"]], [["292.295"], ["0.043"], ["100"], ["1.5407", "0.0013"]], [["292.295"], ["0.051"], ["100"], ["1.538", "0.0013"]]], "solvent": null, "footer": "", "expmeth": "minimum deviations angle"}