{"components": [{"mw": "157.01", "idout": "AAeKrl", "name": "bromobenzene", "formula": "C<SUB>6</SUB>H<SUB>5</SUB>Br", "sample": [["Source:", "commercial source"], ["Initial purification:", "stated by supplier"], ["Initial purity:", "99 mass %"], ["Final purification:", "Karl Fischer titration"], ["Final purity:", "0.016 water mass %(molecular sieve treatment)"]]}, {"sample": [["Source:", "commercial source"], ["Initial purification:", "stated by supplier"], ["Initial purity:", "99 mass %"], ["Final purification:", "Karl Fischer titration"], ["Final purity:", "0.041 water mass %(dried by vacuum heating)"]], "name": "1-hexyl-3-methylimidazolium bis[(trifluoromethyl)sulfonyl]imide", "formula": "C<SUB>12</SUB>H<SUB>19</SUB>F<SUB>6</SUB>N<SUB>3</SUB>O<SUB>4</SUB>S<SUB>2</SUB>", "idout": "ABiCtA", "mw": "447.41"}], "title": "Refraction, surface tension, and speed of sound: Refractive index (Na D-line)", "dhead": [["Temperature, K", null], ["Mole fraction of 1-hexyl-3-methylimidazolium bis[(trifluoromethyl)sulfonyl]imide", "Liquid"], ["Pressure, kPa", null], ["Refractive index (Na D-line)", "Liquid"]], "data": [[["282.959"], ["0.126"], ["100"], ["1.5213", "0.0006"]], [["282.994"], ["1"], ["100"], ["1.4329", "0.0003"]], [["282.996"], ["0"], ["100"], ["1.5612", "0.0003"]], [["282.998"], ["0.012"], ["100"], ["1.5566", "0.0008"]], [["283.051"], ["0.203"], ["100"], ["1.5043", "0.0005"]], [["284.259"], ["1"], ["100"], ["1.4324", "0.0003"]], [["284.387"], ["0.098"], ["100"], ["1.5279", "0.0007"]], [["284.401"], ["0"], ["100"], ["1.5605", "0.0003"]], [["284.67"], ["0.012"], ["100"], ["1.5558", "0.0007"]], [["284.887"], ["0.126"], ["100"], ["1.5204", "0.0006"]], [["285.056"], ["0.203"], ["100"], ["1.5035", "0.0005"]], [["285.533"], ["0.098"], ["100"], ["1.5273", "0.0007"]], [["285.754"], ["0"], ["100"], ["1.5598", "0.0003"]], [["285.796"], ["1"], ["100"], ["1.432", "0.0003"]], [["286.574"], ["0.012"], ["100"], ["1.5548", "0.0007"]], [["286.908"], ["1"], ["100"], ["1.4317", "0.0003"]], [["286.956"], ["0"], ["100"], ["1.5591", "0.0003"]], [["286.981"], ["0.126"], ["100"], ["1.5195", "0.0006"]], [["287.01"], ["0.203"], ["100"], ["1.5027", "0.0005"]], [["287.59"], ["0.098"], ["100"], ["1.5264", "0.0007"]], [["287.983"], ["0"], ["100"], ["1.5585", "0.0003"]], [["288.054"], ["1"], ["100"], ["1.4313", "0.0003"]], [["288.267"], ["0.012"], ["100"], ["1.5539", "0.0007"]], [["288.665"], ["0.085"], ["100"], ["1.5295", "0.0007"]], [["288.987"], ["0"], ["100"], ["1.558", "0.0003"]], [["289.115"], ["0.126"], ["100"], ["1.5186", "0.0006"]], [["289.174"], ["1"], ["100"], ["1.431", "0.0003"]], [["289.175"], ["0.203"], ["100"], ["1.5018", "0.0005"]], [["289.79"], ["0.085"], ["100"], ["1.529", "0.0006"]], [["289.81"], ["0.098"], ["100"], ["1.5254", "0.0006"]], [["290.113"], ["0"], ["100"], ["1.5574", "0.0003"]], [["290.218"], ["1"], ["100"], ["1.4307", "0.0003"]], [["290.227"], ["0.012"], ["100"], ["1.5529", "0.0008"]], [["290.812"], ["0.085"], ["100"], ["1.5286", "0.0006"]], [["290.87"], ["0.026"], ["100"], ["1.5473", "0.0007"]], [["291.093"], ["0.203"], ["100"], ["1.501", "0.0005"]], [["291.142"], ["0.126"], ["100"], ["1.5177", "0.0005"]], [["291.22"], ["0"], ["100"], ["1.5568", "0.0003"]], [["291.276"], ["1"], ["100"], ["1.4304", "0.0003"]], [["291.338"], ["0.012"], ["100"], ["1.5524", "0.0007"]], [["291.486"], ["0.075"], ["100"], ["1.5311", "0.0007"]], [["291.71"], ["0.098"], ["100"], ["1.5245", "0.0007"]], [["292.032"], ["0.026"], ["100"], ["1.5467", "0.0007"]], [["292.143"], ["0.085"], ["100"], ["1.5279", "0.0006"]], [["292.209"], ["0.075"], ["100"], ["1.5307", "0.0006"]], [["292.212"], ["0.126"], ["100"], ["1.5172", "0.0005"]], [["292.216"], ["0.203"], ["100"], ["1.5005", "0.0005"]], [["292.295"], ["0.012"], ["100"], ["1.5518", "0.0008"]], [["292.323"], ["0"], ["100"], ["1.5563", "0.0003"]], [["292.375"], ["1"], ["100"], ["1.4301", "0.0003"]], [["293.006"], ["0.085"], ["100"], ["1.5276", "0.0007"]], [["293.102"], ["0.026"], ["100"], ["1.5461", "0.0007"]], [["293.222"], ["0.203"], ["100"], ["1.5001", "0.0005"]], [["293.223"], ["0.126"], ["100"], ["1.5167", "0.0005"]], [["293.323"], ["0"], ["100"], ["1.5557", "0.0003"]], [["293.347"], ["0.041"], ["100"], ["1.5407", "0.0008"]], [["293.349"], ["0.06"], ["100"], ["1.5348", "0.0006"]], [["293.387"], ["0.012"], ["100"], ["1.5513", "0.0008"]], [["293.389"], ["1"], ["100"], ["1.4298", "0.0003"]], [["293.496"], ["0.075"], ["100"], ["1.5301", "0.0006"]], [["293.74"], ["0.098"], ["100"], ["1.5236", "0.0007"]], [["293.929"], ["0.085"], ["100"], ["1.5271", "0.0007"]], [["294.221"], ["0.026"], ["100"], ["1.5456", "0.0007"]], [["294.446"], ["0.041"], ["100"], ["1.5401", "0.0007"]], [["294.491"], ["0.06"], ["100"], ["1.5343", "0.0007"]], [["294.543"], ["0.075"], ["100"], ["1.5296", "0.0007"]], [["295.101"], ["0.085"], ["100"], ["1.5266", "0.0006"]], [["295.101"], ["0.098"], ["100"], ["1.523", "0.0006"]], [["295.324"], ["0.026"], ["100"], ["1.545", "0.0008"]], [["295.656"], ["0.06"], ["100"], ["1.5337", "0.0007"]], [["295.82"], ["0.041"], ["100"], ["1.5394", "0.0007"]], [["295.84"], ["0.075"], ["100"], ["1.529", "0.0007"]], [["296.657"], ["0.026"], ["100"], ["1.5543", "0.0009"]], [["296.857"], ["0.06"], ["100"], ["1.5331", "0.0013"]], [["297.105"], ["0.041"], ["100"], ["1.5388", "0.0007"]], [["297.16"], ["0.075"], ["100"], ["1.5284", "0.0007"]], [["297.944"], ["0.06"], ["100"], ["1.5325", "0.0007"]], [["298.487"], ["0.041"], ["100"], ["1.5381", "0.0008"]], [["298.644"], ["0.026"], ["100"], ["1.5433", "0.0007"]], [["298.697"], ["0.075"], ["100"], ["1.5277", "0.0007"]], [["299.033"], ["0.06"], ["100"], ["1.532", "0.0007"]], [["299.633"], ["0.041"], ["100"], ["1.5375", "0.0007"]], [["299.983"], ["0.06"], ["100"], ["1.5315", "0.0007"]], [["300.839"], ["0.041"], ["100"], ["1.5369", "0.0008"]]], "solvent": null, "footer": "", "expmeth": "minimum deviations angle", "ref": {"full": "Tao, X.; Yin, T.; Xu, C.; Shen, W. (2016) Fluid Phase Equilib. 415, 184-192.", "title": "Critical phenomena in {bromobenzene + 1-hexyl-3- methylimidazolium bis(trifluoromethylsulfonyl)imide} binary solution"}, "constr": [], "phases": ["Liquid"]}