{"constr": [], "ref": {"full": "Dominguez, I.; Gonzalez, E. J.; Gonzalez, R.; Dominguez, A. (2011) J. Chem. Eng. Data 56(8), 3376-3383.", "title": "Extraction of Benzene from Aliphatic Compounds Using Commercial Ionic Liquids as Solvents: Study of the Liquid Liquid Equilibrium at T = 298.15 K  "}, "phases": ["Liquid"], "dhead": [["Temperature, K", null], ["Pressure, kPa", null], ["Refractive index (Na D-line)", "Liquid"]], "components": [{"mw": "419.36", "idout": "ABchwx", "formula": "C<SUB>10</SUB>H<SUB>15</SUB>F<SUB>6</SUB>N<SUB>3</SUB>O<SUB>4</SUB>S<SUB>2</SUB>", "name": "1-butyl-3-methylimidazolium bis(trifluoromethylsulfonyl)imide", "sample": [["Source:", "commercial source"], ["Purification:", "stated by supplier"], ["Initial purity:", "99 mass %"], ["Final purity:", "0.001 water mass %;0.009 halide impurity mass %"]]}], "title": "Refraction, surface tension, and speed of sound: Refractive index (Na D-line)", "expmeth": "Standard Abbe refractometry", "data": [[["298.15"], ["101.325"], ["1.42706", "0.00071"]]], "solvent": null, "footer": ""}