{"constr": [], "ref": {"title": "Evaluation of Methanesulfonate-Based Deep Eutectic Solvent for Ammonia Sorption", "full": "Akhmetshina, Alsu I.; Petukhov, Anton N.; Mechergui, Amal; Vorotyntsev, Andrey V.; Nyuchev, Alexander V.; Moskvichev, Alexandr A.; Vorotyntsev, Ilya V. (2018) J. Chem. Eng. Data 63(6), 1896-1904."}, "phases": ["Liquid"], "dhead": [["Temperature, K", null], ["Pressure, kPa", null], ["Mole fraction of 1-butyl-3-methylimidazolium methanesulfonate", "Liquid"], ["Refractive index (Na D-line)", "Liquid"]], "components": [{"name": "1-butyl-3-methylimidazolium methanesulfonate", "formula": "C<SUB>9</SUB>H<SUB>18</SUB>N<SUB>2</SUB>O<SUB>3</SUB>S", "mw": "234.31", "idout": "AAtDOY", "sample": [["Source:", "commercial source"], ["Purification:", "stated by supplier"], ["Purity:", "99.5 mass %"]]}, {"sample": [["Source:", "commercial source"], ["Purification:", "stated by supplier"], ["Purity:", "99 mass %"]], "formula": "CH<SUB>4</SUB>N<SUB>2</SUB>O", "name": "urea", "idout": "AALcjF", "mw": "60.06"}], "title": "Refraction, surface tension, and speed of sound: Refractive index (Na D-line)", "expmeth": "Standard Abbe refractometry", "solvent": null, "data": [[["293.15"], ["99.6"], ["0.5"], ["1.493", "0.001"]]], "footer": ""}