{"ref": {"full": "Shekaari, H.; Zafarani-Moattar, M. T.; Mirheydari, S. N. (2019) J. Mol. Liq. 278, 105-114.", "title": "Study of interactions between L-alanine and 1-octyl-3-methylimidazolium salicylate or 1-octyl-3-methylimidazolium ibuprofenate using the thermophysical properties at T = 298.15 K"}, "constr": [], "phases": ["Liquid"], "title": "Refraction, surface tension, and speed of sound: Refractive index (Na D-line)", "components": [{"formula": "C<SUB>19</SUB>H<SUB>28</SUB>N<SUB>2</SUB>O<SUB>3</SUB>", "name": "1-methyl-3-octyl-1H-imidazolium 2-hydroxybenzoate", "mw": "332.44", "idout": "ABLwHW", "sample": [["Source:", "synthesized by the authors"], ["Purification:", "NMR (proton)"], ["Purity:", "97 mass %(dried by vacuum heating)"]]}, {"mw": "89.09", "idout": "AARGJq", "name": "(S)-2-aminopropanoic acid", "formula": "C<SUB>3</SUB>H<SUB>7</SUB>NO<SUB>2</SUB>", "sample": [["Source:", "commercial source"], ["Purification:", "stated by supplier"], ["Purity:", "99 mass %"]]}, {"sample": [["Source:", "commercial source"], ["Purification:", "estimated by the compiler"], ["Purity:", "99.9 mass %(fractional distillation)"]], "mw": "18.02", "idout": "AADYJk", "name": "water", "formula": "H<SUB>2</SUB>O"}], "dhead": [["Solvent: MolaLity of 1-methyl-3-octyl-1H-imidazolium 2-hydroxybenzoate, mol/kg", "Liquid"], ["MolaLity of (S)-2-aminopropanoic acid, mol/kg", "Liquid"], ["Pressure, kPa", null], ["Temperature, K", null], ["Refractive index (Na D-line)", "Liquid"]], "footer": "", "data": [[["0.0974"], ["0"], ["87"], ["298.15"], ["1.3386", "0.004"]], [["0.0974"], ["0.0993"], ["87"], ["298.15"], ["1.3401", "0.004"]], [["0.0974"], ["0.1493"], ["87"], ["298.15"], ["1.3408", "0.004"]], [["0.0974"], ["0.1974"], ["87"], ["298.15"], ["1.3415", "0.004"]], [["0.0974"], ["0.2527"], ["87"], ["298.15"], ["1.3423", "0.004"]], [["0.0974"], ["0.296"], ["87"], ["298.15"], ["1.3429", "0.004"]], [["0.0974"], ["0.3383"], ["87"], ["298.15"], ["1.3435", "0.004"]], [["0.0974"], ["0.3978"], ["87"], ["298.15"], ["1.3443", "0.004"]], [["0.0974"], ["0.4461"], ["87"], ["298.15"], ["1.345", "0.004"]], [["0.2012"], ["0"], ["87"], ["298.15"], ["1.344", "0.004"]], [["0.2012"], ["0.0993"], ["87"], ["298.15"], ["1.3454", "0.004"]], [["0.2012"], ["0.1493"], ["87"], ["298.15"], ["1.3462", "0.004"]], [["0.2012"], ["0.1974"], ["87"], ["298.15"], ["1.3469", "0.004"]], [["0.2012"], ["0.2527"], ["87"], ["298.15"], ["1.3477", "0.004"]], [["0.2012"], ["0.296"], ["87"], ["298.15"], ["1.3483", "0.004"]], [["0.2012"], ["0.3383"], ["87"], ["298.15"], ["1.3489", "0.004"]], [["0.2012"], ["0.3978"], ["87"], ["298.15"], ["1.3498", "0.004"]], [["0.2012"], ["0.4461"], ["87"], ["298.15"], ["1.3504", "0.004"]], [["0.298"], ["0"], ["87"], ["298.15"], ["1.3488", "0.0041"]], [["0.298"], ["0.0985"], ["87"], ["298.15"], ["1.3503", "0.0041"]], [["0.298"], ["0.1512"], ["87"], ["298.15"], ["1.3512", "0.0041"]], [["0.298"], ["0.197"], ["87"], ["298.15"], ["1.3519", "0.0041"]], [["0.298"], ["0.2537"], ["87"], ["298.15"], ["1.3529", "0.0041"]], [["0.298"], ["0.2857"], ["87"], ["298.15"], ["1.3534", "0.0041"]], [["0.298"], ["0.3493"], ["87"], ["298.15"], ["1.3545", "0.0041"]], [["0.298"], ["0.3852"], ["87"], ["298.15"], ["1.3551", "0.0041"]], [["0.298"], ["0.4408"], ["87"], ["298.15"], ["1.356", "0.0041"]]], "solvent": "1-methyl-3-octyl-1H-imidazolium 2-hydroxybenzoate + water", "expmeth": "Standard Abbe refractometry"}