{"ref": {"full": "Kaneko, K.; Yoshimura, Y.; Shimizu, A. (2018) J. Mol. Liq. 250, 283-286.", "title": "Water concentration dependence of the refractive index of various ionic liquid-water mixtures"}, "constr": [], "phases": ["Liquid"], "title": "Refraction, surface tension, and speed of sound: Refractive index (Na D-line)", "components": [{"idout": "AAsqqt", "mw": "233.06", "formula": "C<SUB>8</SUB>H<SUB>20</SUB>BF<SUB>4</SUB>NO", "name": "N,N-diethyl-2-methoxy-N-methylethan-1-aminium tetrafluoroborate", "sample": [["Source:", "commercial source"], ["Initial purification:", "stated by supplier"], ["Initial purity:", "98 mass %"], ["Final purification:", "NMR (proton)"], ["Final purity:", "0.0328 water mass %(de-gassed by evacuation;dried by vacuum heating)"]]}, {"sample": [["Source:", "commercial source"], ["Purification:", "estimated by the compiler"], ["Purity:", "99.9 mass %"]], "idout": "AADYJk", "mw": "18.02", "name": "water", "formula": "H<SUB>2</SUB>O"}], "dhead": [["Mole fraction of N,N-diethyl-2-methoxy-N-methylethan-1-aminium tetrafluoroborate", "Liquid"], ["Pressure, kPa", null], ["Temperature, K", null], ["Refractive index (Na D-line)", "Liquid"]], "footer": "", "data": [[["0"], ["100"], ["293"], ["1.3333", "0.0005"]], [["0.004"], ["100"], ["293"], ["1.3362", "0.0005"]], [["0.006"], ["100"], ["293"], ["1.3371", "0.0005"]], [["0.007"], ["100"], ["293"], ["1.3382", "0.0005"]], [["0.009"], ["100"], ["293"], ["1.3397", "0.0005"]], [["0.012"], ["100"], ["293"], ["1.3417", "0.0005"]], [["0.02"], ["100"], ["293"], ["1.346", "0.0005"]], [["0.034"], ["100"], ["293"], ["1.3526", "0.0005"]], [["0.038"], ["100"], ["293"], ["1.3543", "0.0005"]], [["0.045"], ["100"], ["293"], ["1.3573", "0.0005"]], [["0.053"], ["100"], ["293"], ["1.3598", "0.0005"]], [["0.067"], ["100"], ["293"], ["1.3642", "0.0005"]], [["0.1"], ["100"], ["293"], ["1.3723", "0.0005"]], [["0.134"], ["100"], ["293"], ["1.3785", "0.0005"]], [["0.167"], ["100"], ["293"], ["1.3827", "0.0005"]], [["0.199"], ["100"], ["293"], ["1.3862", "0.0005"]], [["0.248"], ["100"], ["293"], ["1.3904", "0.0005"]], [["0.292"], ["100"], ["293"], ["1.3934", "0.0005"]], [["0.34"], ["100"], ["293"], ["1.3962", "0.0005"]], [["0.383"], ["100"], ["293"], ["1.398", "0.0005"]], [["0.498"], ["100"], ["293"], ["1.402", "0.0005"]], [["0.596"], ["100"], ["293"], ["1.4047", "0.0006"]], [["0.798"], ["100"], ["293"], ["1.4083", "0.0006"]], [["1"], ["100"], ["293"], ["1.4104", "0.0006"]]], "solvent": null, "expmeth": "Standard Abbe refractometry"}