{"phases": ["Liquid"], "ref": {"full": "Bhattacharjee, A.; Luis, A.; Lopes-da-Silva, J. A.; Freire, M. G.; Carvalho, P. J.; Coutinho, J. A. P. (2014) Fluid Phase Equilib. 381, 36-45.", "title": "Thermophysical properties of sulfonium- and ammonium-based ionic liquids"}, "constr": [], "expmeth": "Standard Abbe refractometry", "data": [[["283.15"], ["101.325"], ["1.4308", "0.00037"]], [["288.15"], ["101.325"], ["1.42933", "0.00037"]], [["293.15"], ["101.325"], ["1.42787", "0.00037"]], [["298.15"], ["101.325"], ["1.42643", "0.00037"]], [["303.15"], ["101.325"], ["1.42491", "0.00037"]], [["308.15"], ["101.325"], ["1.42338", "0.00037"]], [["313.15"], ["101.325"], ["1.42194", "0.00037"]], [["318.15"], ["101.325"], ["1.42047", "0.00037"]], [["323.15"], ["101.325"], ["1.41902", "0.00037"]], [["328.15"], ["101.325"], ["1.41758", "0.00037"]], [["333.15"], ["101.325"], ["1.41613", "0.00037"]], [["338.15"], ["101.325"], ["1.41468", "0.00037"]], [["343.15"], ["101.325"], ["1.41324", "0.00037"]], [["348.15"], ["101.325"], ["1.4118", "0.00037"]], [["353.15"], ["101.325"], ["1.4104", "0.00037"]]], "solvent": null, "footer": "", "dhead": [["Temperature, K", null], ["Pressure, kPa", null], ["Refractive index (Na D-line)", "Liquid"]], "components": [{"mw": "480.53", "idout": "ABoVAt", "formula": "C<SUB>15</SUB>H<SUB>30</SUB>F<SUB>6</SUB>N<SUB>2</SUB>O<SUB>4</SUB>S<SUB>2</SUB>", "name": "tributylmethylammonium bis((trifluoromethyl)sulfonyl)imide", "sample": [["Source:", "commercial source"], ["Initial purification:", "stated by supplier"], ["Initial purity:", "99 mass %"], ["Final purification:", "Karl Fischer titration"], ["Final purity:", "0.0875 water mass %(dried by vacuum heating)"]]}], "title": "Refraction, surface tension, and speed of sound: Refractive index (Na D-line)"}