{"constr": [], "ref": {"full": "Garcia-Mardones, M.; Cea, P.; Lopez, M. C.; Lafuente, C. (2013) Thermochim. Acta 572, 39-44.", "title": "Refractive properties of binary mixtures containing pyridinium-basedionic liquids and alkanols"}, "phases": ["Liquid"], "title": "Refraction, surface tension, and speed of sound: Refractive index (Na D-line)", "components": [{"mw": "32.04", "idout": "AAGIBL", "name": "methanol", "formula": "CH<SUB>4</SUB>O", "sample": [["Source:", "commercial source"], ["Purification:", "stated by supplier"], ["Purity:", "99.8 mass %"]]}, {"formula": "C<SUB>10</SUB>H<SUB>16</SUB>BF<SUB>4</SUB>N", "name": "1-butyl-4-methylpyridinium tetrafluoroborate", "mw": "237.05", "idout": "AAtevY", "sample": [["Source:", "commercial source"], ["Initial purification:", "stated by supplier"], ["Initial purity:", "99 mass %"], ["Final purification:", "Karl Fischer titration"], ["Final purity:", "0.01 water mass %(dried by vacuum heating;molecular sieve treatment)"]]}], "dhead": [["Temperature, K", null], ["Volume fraction of 1-butyl-4-methylpyridinium tetrafluoroborate", "Liquid"], ["Pressure, kPa", null], ["Refractive index (Na D-line)", "Liquid"]], "footer": "", "data": [[["293.15"], ["0"], ["101"], ["1.32843", "0.0004"]], [["293.15"], ["0.1112"], ["101"], ["1.34463", "0.0004"]], [["293.15"], ["0.2018"], ["101"], ["1.35697", "0.00041"]], [["293.15"], ["0.35"], ["101"], ["1.37633", "0.00041"]], [["293.15"], ["0.4246"], ["101"], ["1.38563", "0.00042"]], [["293.15"], ["0.536"], ["101"], ["1.39939", "0.00042"]], [["293.15"], ["0.6177"], ["101"], ["1.40923", "0.00042"]], [["293.15"], ["0.7602"], ["101"], ["1.42612", "0.00043"]], [["293.15"], ["0.8518"], ["101"], ["1.43688", "0.00044"]], [["293.15"], ["0.918"], ["101"], ["1.44447", "0.00044"]], [["293.15"], ["0.9493"], ["101"], ["1.44803", "0.00044"]], [["293.15"], ["0.972"], ["101"], ["1.45071", "0.00045"]], [["293.15"], ["1"], ["101"], ["1.45386", "0.00045"]], [["303.15"], ["0"], ["101"], ["1.32433", "0.0004"]], [["303.15"], ["0.1106"], ["101"], ["1.34117", "0.0004"]], [["303.15"], ["0.3486"], ["101"], ["1.37358", "0.00041"]], [["303.15"], ["0.4232"], ["101"], ["1.38299", "0.00042"]], [["303.15"], ["0.5344"], ["101"], ["1.39677", "0.00042"]], [["303.15"], ["0.6207"], ["101"], ["1.40713", "0.00042"]], [["303.15"], ["0.7591"], ["101"], ["1.42353", "0.00043"]], [["303.15"], ["0.851"], ["101"], ["1.43426", "0.00044"]], [["303.15"], ["0.9176"], ["101"], ["1.44194", "0.00044"]], [["303.15"], ["0.949"], ["101"], ["1.44537", "0.00044"]], [["303.15"], ["0.9718"], ["101"], ["1.44804", "0.00045"]], [["303.15"], ["1"], ["101"], ["1.45114", "0.00045"]], [["313.15"], ["0"], ["101"], ["1.32015", "0.0004"]], [["313.15"], ["0.11"], ["101"], ["1.33739", "0.0004"]], [["313.15"], ["0.1999"], ["101"], ["1.35068", "0.00041"]], [["313.15"], ["0.3473"], ["101"], ["1.3707", "0.00041"]], [["313.15"], ["0.4217"], ["101"], ["1.38018", "0.00042"]], [["313.15"], ["0.5329"], ["101"], ["1.39391", "0.00042"]], [["313.15"], ["0.6193"], ["101"], ["1.40438", "0.00042"]], [["313.15"], ["0.758"], ["101"], ["1.42079", "0.00043"]], [["313.15"], ["0.8503"], ["101"], ["1.43146", "0.00044"]], [["313.15"], ["0.9171"], ["101"], ["1.43912", "0.00044"]], [["313.15"], ["0.9487"], ["101"], ["1.44264", "0.00044"]], [["313.15"], ["0.9717"], ["101"], ["1.44535", "0.00045"]], [["313.15"], ["1"], ["101"], ["1.44841", "0.00045"]], [["323.15"], ["0"], ["101"], ["1.3167", "0.0004"]], [["323.15"], ["0.1093"], ["101"], ["1.33458", "0.0004"]], [["323.15"], ["0.1988"], ["101"], ["1.34799", "0.00041"]], [["323.15"], ["0.3457"], ["101"], ["1.36799", "0.00041"]], [["323.15"], ["0.42"], ["101"], ["1.37759", "0.00042"]], [["323.15"], ["0.5312"], ["101"], ["1.39136", "0.00042"]], [["323.15"], ["0.6177"], ["101"], ["1.4019", "0.00042"]], [["323.15"], ["0.7567"], ["101"], ["1.41831", "0.00043"]], [["323.15"], ["0.8494"], ["101"], ["1.42883", "0.00044"]], [["323.15"], ["0.9166"], ["101"], ["1.43643", "0.00044"]], [["323.15"], ["0.9483"], ["101"], ["1.43993", "0.00044"]], [["323.15"], ["0.9715"], ["101"], ["1.44266", "0.00045"]], [["323.15"], ["1"], ["101"], ["1.44571", "0.00045"]]], "solvent": null, "expmeth": "Standard Abbe refractometry"}