{"phases": ["Liquid"], "ref": {"full": "Andreatta, A. E.; Arce, A.; Rodil, E.; Soto, A. (2009) J. Chem. Eng. Data 54(3), 1022.", "title": "Physical Properties of Binary and Ternary Mixtures of Ethyl Acetate, Ethanol, and 1-Octyl-3-methyl-imidazolium Bis(trifluoromethylsulfonyl)imide at 298.15 K"}, "constr": [], "expmeth": "Standard Abbe refractometry", "data": [[["0.037"], ["0.3881"], ["101.3"], ["298.15"], ["1.42512", "0.00033"]], [["0.0424"], ["0.6658"], ["101.3"], ["298.15"], ["1.41273", "0.00032"]], [["0.0502"], ["0.7561"], ["101.3"], ["298.15"], ["1.40418", "0.00032"]], [["0.0507"], ["0.184"], ["101.3"], ["298.15"], ["1.4293", "0.00035"]], [["0.0538"], ["0.2725"], ["101.3"], ["298.15"], ["1.42758", "0.00034"]], [["0.0545"], ["0.0909"], ["101.3"], ["298.15"], ["1.43071", "0.00036"]], [["0.0576"], ["0.5635"], ["101.3"], ["298.15"], ["1.4177", "0.00032"]], [["0.0645"], ["0.4719"], ["101.3"], ["298.15"], ["1.42156", "0.00033"]], [["0.08"], ["0.8272"], ["101.3"], ["298.15"], ["1.38928", "0.00031"]], [["0.0967"], ["0.1751"], ["101.3"], ["298.15"], ["1.4285", "0.00035"]], [["0.0984"], ["0.0867"], ["101.3"], ["298.15"], ["1.43013", "0.00035"]], [["0.0987"], ["0.5389"], ["101.3"], ["298.15"], ["1.41676", "0.00032"]], [["0.0995"], ["0.6261"], ["101.3"], ["298.15"], ["1.41124", "0.00032"]], [["0.1042"], ["0.258"], ["101.3"], ["298.15"], ["1.42652", "0.00034"]], [["0.1078"], ["0.7103"], ["101.3"], ["298.15"], ["1.40272", "0.00032"]], [["0.1118"], ["0.4481"], ["101.3"], ["298.15"], ["1.42028", "0.00033"]], [["0.1248"], ["0.7869"], ["101.3"], ["298.15"], ["1.38831", "0.00032"]], [["0.1317"], ["0.3499"], ["101.3"], ["298.15"], ["1.42315", "0.00033"]], [["0.1462"], ["0.6797"], ["101.3"], ["298.15"], ["1.40165", "0.00032"]], [["0.1489"], ["0.5917"], ["101.3"], ["298.15"], ["1.40998", "0.00032"]], [["0.1527"], ["0.0815"], ["101.3"], ["298.15"], ["1.42893", "0.00035"]], [["0.1575"], ["0.2426"], ["101.3"], ["298.15"], ["1.42541", "0.00034"]], [["0.1578"], ["0.5036"], ["101.3"], ["298.15"], ["1.41526", "0.00032"]], [["0.16"], ["0.1628"], ["101.3"], ["298.15"], ["1.42715", "0.00034"]], [["0.1685"], ["0.4195"], ["101.3"], ["298.15"], ["1.41886", "0.00033"]], [["0.1753"], ["0.3324"], ["101.3"], ["298.15"], ["1.42207", "0.00033"]], [["0.1848"], ["0.3286"], ["101.3"], ["298.15"], ["1.42183", "0.00033"]], [["0.1905"], ["0.7278"], ["101.3"], ["298.15"], ["1.38705", "0.00032"]], [["0.1952"], ["0.6406"], ["101.3"], ["298.15"], ["1.40051", "0.00032"]], [["0.1993"], ["0.5567"], ["101.3"], ["298.15"], ["1.40852", "0.00032"]], [["0.2012"], ["0.0768"], ["101.3"], ["298.15"], ["1.42795", "0.00035"]], [["0.2045"], ["0.1542"], ["101.3"], ["298.15"], ["1.42629", "0.00034"]], [["0.2069"], ["0.4742"], ["101.3"], ["298.15"], ["1.41388", "0.00032"]], [["0.2071"], ["0.4"], ["101.3"], ["298.15"], ["1.41787", "0.00033"]], [["0.2087"], ["0.2279"], ["101.3"], ["298.15"], ["1.42415", "0.00034"]], [["0.2274"], ["0.6947"], ["101.3"], ["298.15"], ["1.38642", "0.00032"]], [["0.2689"], ["0.2947"], ["101.3"], ["298.15"], ["1.41984", "0.00033"]], [["0.2797"], ["0.5734"], ["101.3"], ["298.15"], ["1.39804", "0.00032"]], [["0.2817"], ["0.4994"], ["101.3"], ["298.15"], ["1.4064", "0.00032"]], [["0.2964"], ["0.2026"], ["101.3"], ["298.15"], ["1.42194", "0.00033"]], [["0.2967"], ["0.0676"], ["101.3"], ["298.15"], ["1.42574", "0.00034"]], [["0.3042"], ["0.416"], ["101.3"], ["298.15"], ["1.4111", "0.00032"]], [["0.3052"], ["0.1347"], ["101.3"], ["298.15"], ["1.42365", "0.00034"]], [["0.3104"], ["0.62"], ["101.3"], ["298.15"], ["1.38481", "0.00032"]], [["0.3119"], ["0.3471"], ["101.3"], ["298.15"], ["1.41486", "0.00032"]], [["0.3835"], ["0.4908"], ["101.3"], ["298.15"], ["1.39496", "0.00032"]], [["0.3874"], ["0.2469"], ["101.3"], ["298.15"], ["1.41595", "0.00033"]], [["0.388"], ["0.1762"], ["101.3"], ["298.15"], ["1.41909", "0.00033"]], [["0.3889"], ["0.4249"], ["101.3"], ["298.15"], ["1.40273", "0.00032"]], [["0.3979"], ["0.3037"], ["101.3"], ["298.15"], ["1.41194", "0.00032"]], [["0.4014"], ["0.116"], ["101.3"], ["298.15"], ["1.42096", "0.00033"]], [["0.4059"], ["0.0571"], ["101.3"], ["298.15"], ["1.42271", "0.00034"]], [["0.4132"], ["0.3509"], ["101.3"], ["298.15"], ["1.40722", "0.00032"]], [["0.4189"], ["0.5225"], ["101.3"], ["298.15"], ["1.38257", "0.00033"]], [["0.4877"], ["0.2065"], ["101.3"], ["298.15"], ["1.41238", "0.00032"]], [["0.4913"], ["0.405"], ["101.3"], ["298.15"], ["1.39149", "0.00033"]], [["0.4921"], ["0.3531"], ["101.3"], ["298.15"], ["1.39884", "0.00033"]], [["0.4936"], ["0.1458"], ["101.3"], ["298.15"], ["1.4153", "0.00033"]], [["0.4956"], ["0.0978"], ["101.3"], ["298.15"], ["1.4176", "0.00033"]], [["0.499"], ["0.2528"], ["101.3"], ["298.15"], ["1.40803", "0.00032"]], [["0.5043"], ["0.4457"], ["101.3"], ["298.15"], ["1.38068", "0.00034"]], [["0.5102"], ["0.0471"], ["101.3"], ["298.15"], ["1.41901", "0.00033"]], [["0.5162"], ["0.2893"], ["101.3"], ["298.15"], ["1.40329", "0.00032"]], [["0.5899"], ["0.1181"], ["101.3"], ["298.15"], ["1.41099", "0.00032"]], [["0.591"], ["0.3256"], ["101.3"], ["298.15"], ["1.388", "0.00033"]], [["0.5911"], ["0.2063"], ["101.3"], ["298.15"], ["1.40394", "0.00032"]], [["0.594"], ["0.365"], ["101.3"], ["298.15"], ["1.37889", "0.00033"]], [["0.5947"], ["0.1634"], ["101.3"], ["298.15"], ["1.40733", "0.00032"]], [["0.5954"], ["0.2813"], ["101.3"], ["298.15"], ["1.39451", "0.00032"]], [["0.5961"], ["0.0388"], ["101.3"], ["298.15"], ["1.41523", "0.00033"]], [["0.597"], ["0.0781"], ["101.3"], ["298.15"], ["1.4131", "0.00032"]], [["0.6078"], ["0.2345"], ["101.3"], ["298.15"], ["1.39903", "0.00032"]], [["0.6802"], ["0.2876"], ["101.3"], ["298.15"], ["1.37686", "0.00033"]], [["0.6913"], ["0.0598"], ["101.3"], ["298.15"], ["1.40764", "0.00032"]], [["0.6915"], ["0.2456"], ["101.3"], ["298.15"], ["1.38412", "0.00032"]], [["0.6981"], ["0.2099"], ["101.3"], ["298.15"], ["1.3896", "0.00032"]], [["0.6998"], ["0.1795"], ["101.3"], ["298.15"], ["1.3943", "0.00032"]], [["0.7002"], ["0.1208"], ["101.3"], ["298.15"], ["1.4013", "0.00032"]], [["0.7065"], ["0.148"], ["101.3"], ["298.15"], ["1.39739", "0.00032"]], [["0.7077"], ["0.0281"], ["101.3"], ["298.15"], ["1.40879", "0.00032"]], [["0.7173"], ["0.0814"], ["101.3"], ["298.15"], ["1.40358", "0.00032"]], [["0.7742"], ["0.157"], ["101.3"], ["298.15"], ["1.38552", "0.00032"]], [["0.7846"], ["0.1715"], ["101.3"], ["298.15"], ["1.38022", "0.00032"]], [["0.7892"], ["0.1261"], ["101.3"], ["298.15"], ["1.38845", "0.00032"]], [["0.79"], ["0.0846"], ["101.3"], ["298.15"], ["1.39468", "0.00032"]], [["0.7954"], ["0.184"], ["101.3"], ["298.15"], ["1.37435", "0.00032"]], [["0.7968"], ["0.0394"], ["101.3"], ["298.15"], ["1.39946", "0.00032"]], [["0.7979"], ["0.0194"], ["101.3"], ["298.15"], ["1.40184", "0.00032"]], [["0.8028"], ["0.0995"], ["101.3"], ["298.15"], ["1.39061", "0.00032"]], [["0.8137"], ["0.0536"], ["101.3"], ["298.15"], ["1.39582", "0.00032"]], [["0.8735"], ["0.1138"], ["101.3"], ["298.15"], ["1.37266", "0.00032"]], [["0.8748"], ["0.0997"], ["101.3"], ["298.15"], ["1.37615", "0.00032"]], [["0.8768"], ["0.0857"], ["101.3"], ["298.15"], ["1.37908", "0.00032"]], [["0.8849"], ["0.1035"], ["101.3"], ["298.15"], ["1.37241", "0.00032"]], [["0.8901"], ["0.0443"], ["101.3"], ["298.15"], ["1.38518", "0.00032"]], [["0.8932"], ["0.0638"], ["101.3"], ["298.15"], ["1.38071", "0.00031"]], [["0.8952"], ["0.0203"], ["101.3"], ["298.15"], ["1.38867", "0.00032"]], [["0.8981"], ["0.0294"], ["101.3"], ["298.15"], ["1.38673", "0.00032"]], [["0.8999"], ["0.0505"], ["101.3"], ["298.15"], ["1.38193", "0.00031"]], [["0.9031"], ["0.0093"], ["101.3"], ["298.15"], ["1.38906", "0.00032"]]], "solvent": null, "footer": "", "dhead": [["Mole fraction of ethyl acetate", "Liquid"], ["Mole fraction of ethanol", "Liquid"], ["Pressure, kPa", null], ["Temperature, K", null], ["Refractive index (Na D-line)", "Liquid"]], "components": [{"mw": "46.07", "idout": "AAIsrh", "name": "ethanol", "formula": "C<SUB>2</SUB>H<SUB>6</SUB>O", "sample": [["Source:", "commercial source"], ["Initial purification:", "stated by supplier"], ["Initial purity:", "99.9 mass %"], ["Final purification:", "Karl Fischer titration"], ["Final purity:", "0.0347 water mass %"]]}, {"name": "ethyl acetate", "formula": "C<SUB>4</SUB>H<SUB>8</SUB>O<SUB>2</SUB>", "idout": "AAQxSq", "mw": "88.11", "sample": [["Source:", "commercial source"], ["Initial purification:", "stated by supplier"], ["Initial purity:", "99.8 mass %"], ["Final purification:", "Karl Fischer titration"], ["Final purity:", "0.0167 water mass %"]]}, {"sample": [["Source:", "synthesized by the authors"], ["Purification:", "Karl Fischer titration;NMR (proton)"], ["Purity:", "0.0036 water mass %;99 mol %(dried by vacuum heating)"]], "mw": "475.47", "idout": "ABnWNT", "formula": "C<SUB>14</SUB>H<SUB>23</SUB>F<SUB>6</SUB>N<SUB>3</SUB>O<SUB>4</SUB>S<SUB>2</SUB>", "name": "1-methyl-3-octylimidazolium bis(trifluoromethylsulfonyl)imide"}], "title": "Refraction, surface tension, and speed of sound: Refractive index (Na D-line)"}