{"components": [{"mw": "340.29", "idout": "ABNWoR", "name": "1-octyl-3-methylimidazolium hexafluorophosphate", "formula": "C<SUB>12</SUB>H<SUB>23</SUB>F<SUB>6</SUB>N<SUB>2</SUB>P", "sample": [["Source:", "commercial source"], ["Purification:", "stated by supplier"], ["Purity:", "95 % (basis not specified)"]]}], "title": "Refraction, surface tension, and speed of sound: Refractive index (Na D-line)", "dhead": [["Temperature, K", null], ["Pressure, kPa", null], ["Refractive index (Na D-line)", "Liquid"]], "solvent": null, "data": [[["298.15"], ["101.325"], ["1.4217", "0.0013"]], [["303.15"], ["101.325"], ["1.4211", "0.0013"]], [["308.15"], ["101.325"], ["1.4206", "0.0013"]], [["313.15"], ["101.325"], ["1.4201", "0.0013"]], [["318.15"], ["101.325"], ["1.4195", "0.0013"]], [["323.15"], ["101.325"], ["1.4186", "0.0013"]], [["328.15"], ["101.325"], ["1.4177", "0.0013"]], [["333.15"], ["101.325"], ["1.4167", "0.0013"]]], "footer": "", "expmeth": "Standard Abbe refractometry", "constr": [], "ref": {"title": "Temperature Dependence of Physicochemical Properties of Imidazolium-, Pyroldinium-, and Phosphonium-Based Ionic Liquids", "full": "AlTuwaim, M. S.; Alkhaldi, K. H. A. E.; Al-Jimaz, A. S.; Mohammad, A. A. (2014) J. Chem. Eng. Data 59(6), 1955-1963."}, "phases": ["Liquid"]}