{"ref": {"title": "Liquid-Liquid Equilibria for {1-Ethyl-3-methylimidazolium Diethylphosphate or 1-Ethyl-3-methylimidazolium Ethylsulfate} + 4,6-Dimethyldibenzothiophene + Dodecane Systems at 298.2 K and 313.2 K  ", "full": "Oliveira, L. H. d.; Aznar, M. (2011) J. Chem. Eng. Data 56(5), 2005-2012."}, "constr": [], "phases": ["Liquid mixture 1", "Liquid mixture 2"], "components": [{"mw": "170.34", "idout": "AAgnKZ", "name": "dodecane", "formula": "C<SUB>12</SUB>H<SUB>26</SUB>", "sample": [["Source:", "commercial source"], ["Purification:", "stated by supplier"], ["Purity:", "99.6 % (basis not specified)"]]}, {"sample": [["Source:", "commercial source"], ["Purification:", "stated by supplier"], ["Purity:", "97 % (basis not specified)"]], "mw": "212.31", "idout": "AAoryz", "name": "4,6-dimethyldibenzo[b,d]thiophene", "formula": "C<SUB>14</SUB>H<SUB>12</SUB>S"}, {"sample": [["Source:", "commercial source"], ["Initial purification:", "stated by supplier"], ["Initial purity:", "98 % (basis not specified)"], ["Final purification:", "Karl Fischer titration"], ["Final purity:", "0.05 water mass %"]], "mw": "264.26", "idout": "AAyqRj", "name": "1-ethyl-3-methylimidazolium diethyl phosphate", "formula": "C<SUB>10</SUB>H<SUB>21</SUB>N<SUB>2</SUB>O<SUB>4</SUB>P"}], "title": "Refraction, surface tension, and speed of sound: Refractive index (Na D-line)", "dhead": [["Temperature, K", null], ["Weight fraction of 1-ethyl-3-methylimidazolium diethyl phosphate", "Liquid mixture 1"], ["Pressure, kPa", null], ["Refractive index (Na D-line)", "Liquid mixture 1"]], "solvent": null, "data": [[["298.2"], ["0.9921"], ["95"], ["1.4735", "0.0008"]], [["298.2"], ["0.9942"], ["95"], ["1.4733", "0.0008"]], [["298.2"], ["0.9957"], ["95"], ["1.4731", "0.0008"]], [["298.2"], ["0.9967"], ["95"], ["1.4727", "0.0008"]], [["313.2"], ["0.9873"], ["95"], ["1.4694", "0.0006"]], [["313.2"], ["0.9902"], ["95"], ["1.4691", "0.0006"]], [["313.2"], ["0.9937"], ["95"], ["1.4686", "0.0006"]], [["313.2"], ["0.9951"], ["95"], ["1.4685", "0.0006"]]], "footer": "", "expmeth": "Standard Abbe refractometry"}