{"dhead": [["Mole fraction of 3-methyl-2-butanone", "Liquid"], ["Pressure, kPa", null], ["Temperature, K", null], ["Refractive index (Na D-line)", "Liquid"]], "components": [{"name": "3-methyl-2-butanone", "formula": "C<SUB>5</SUB>H<SUB>10</SUB>O", "mw": "86.13", "idout": "AAQdmS", "sample": [["Source:", "commercial source"], ["Initial purification:", "gas chromatography"], ["Initial purity:", "99.9 mass %"], ["Final purification:", "Karl Fischer titration"], ["Final purity:", "0.002 water mass %(molecular sieve treatment)"]]}, {"sample": [["Source:", "commercial source"], ["Initial purification:", "stated by supplier"], ["Initial purity:", "95.0 mass %"], ["Final purification:", "Karl Fischer titration"], ["Final purity:", "0.07 water mass %(molecular sieve treatment)"]], "name": "trihexyl(tetradecyl)phosphonium chloride", "formula": "C<SUB>32</SUB>H<SUB>68</SUB>ClP", "idout": "ABvtRE", "mw": "519.32"}], "title": "Refraction, surface tension, and speed of sound: Refractive index (Na D-line)", "expmeth": "Standard Abbe refractometry", "solvent": null, "data": [[["0.0502"], ["100"], ["298.15"], ["1.4807", "0.001"]], [["0.1002"], ["100"], ["298.15"], ["1.4798", "0.001"]], [["0.1995"], ["100"], ["298.15"], ["1.4777", "0.0009"]], [["0.2994"], ["100"], ["298.15"], ["1.4746", "0.0008"]], [["0.4005"], ["100"], ["298.15"], ["1.472", "0.0007"]], [["0.5005"], ["100"], ["298.15"], ["1.4677", "0.0007"]], [["0.6003"], ["100"], ["298.15"], ["1.4622", "0.0006"]], [["0.7001"], ["100"], ["298.15"], ["1.4545", "0.0005"]], [["0.8"], ["100"], ["298.15"], ["1.4426", "0.0005"]], [["0.8999"], ["100"], ["298.15"], ["1.4263", "0.0004"]], [["0.95"], ["100"], ["298.15"], ["1.4099", "0.0004"]]], "footer": "", "constr": [], "ref": {"title": "Density, refractive index and kinematic viscosity of MIPK, MEK and phosphonium-based ionic liquids and the excess and deviation properties of their binary systems", "full": "Lee, K.-H.; Park, S.-J.; Choi, Y.-Y. (2017) Korean J. Chem. Eng. 34(1), 214-224."}, "phases": ["Liquid"]}