{"ref": {"full": "Rocha, M. A. A.; Ribeiro, F. M. S.; Ferreira, A. I. M. C. L.; Coutinho, J. A. P.; Santos, L. M. N. B. F. (2013) J. Mol. Liq. 188, 196-202.", "title": "Thermophysical properties of [CN - 1C1im][PF6] ionic liquids"}, "constr": [], "phases": ["Liquid"], "title": "Refraction, surface tension, and speed of sound: Refractive index (Na D-line)", "components": [{"sample": [["Source:", "commercial source"], ["Initial purification:", "stated by supplier"], ["Initial purity:", "99 mass %"], ["Final purification:", "estimated by the compiler"], ["Final purity:", "99 mass %(dried by vacuum heating)"]], "mw": "298.21", "idout": "ABFSRj", "name": "1-methyl-3-pentylimidazolium hexafluorophosphate", "formula": "C<SUB>9</SUB>H<SUB>17</SUB>F<SUB>6</SUB>N<SUB>2</SUB>P"}], "dhead": [["Temperature, K", null], ["Pressure, kPa", null], ["Refractive index (Na D-line)", "Liquid"]], "footer": "", "data": [[["288.25"], ["101.325"], ["1.41655", "0.00037"]], [["293.25"], ["101.325"], ["1.4152", "0.00037"]], [["298.05"], ["101.325"], ["1.41387", "0.00037"]], [["302.95"], ["101.325"], ["1.41258", "0.00037"]], [["308.05"], ["101.325"], ["1.41119", "0.00037"]], [["313.12"], ["101.325"], ["1.40982", "0.00037"]], [["318.05"], ["101.325"], ["1.40851", "0.00037"]]], "solvent": null, "expmeth": "Standard Abbe refractometry"}