{"ref": {"full": "Tong, J.; Hong, M.; Liu, C.; Sun, A.; Guan, W.; Yang, J. -Z. (2013) Ind. Eng. Chem. Res. 52, 4967-4972.", "title": "Estimation of Properties of Ionic Liquids 1-Alkyl-3-methylimidazolium Lactate Using a Semiempirical Method"}, "constr": [], "phases": ["Liquid"], "components": [{"sample": [["Source:", "commercial source"], ["Purification:", "estimated by the compiler"], ["Purity:", "99 mass %(fractional distillation)"]], "formula": "H<SUB>2</SUB>O", "name": "water", "idout": "AADYJk", "mw": "18.02"}, {"sample": [["Source:", "synthesized by the authors"], ["Purification:", "estimated by the compiler"], ["Purity:", "98 mass %(dried by vacuum heating)"]], "name": "1-ethyl-3-methylimidazolium lactate", "formula": "C<SUB>9</SUB>H<SUB>16</SUB>N<SUB>2</SUB>O<SUB>3</SUB>", "idout": "AAmaPc", "mw": "200.24"}], "title": "Refraction, surface tension, and speed of sound: Refractive index (Na D-line)", "dhead": [["Weight fraction of water", "Liquid"], ["Pressure, kPa", null], ["Temperature, K", null], ["Refractive index (Na D-line)", "Liquid"]], "data": [[["0.0082"], ["101"], ["298.15"], ["1.4988", "0.0005"]], [["0.0104"], ["101"], ["298.15"], ["1.4986", "0.0005"]], [["0.0121"], ["101"], ["298.15"], ["1.4985", "0.0005"]], [["0.0158"], ["101"], ["298.15"], ["1.4982", "0.0005"]], [["0.0205"], ["101"], ["298.15"], ["1.4978", "0.0005"]]], "solvent": null, "footer": "", "expmeth": "Standard Abbe refractometry"}