{"ref": {"title": "Phase equilibrium measurements and thermodynamic modelling of {water + phenol + [Hmim][NTf2]} ionic liquid system at several temperatures", "full": "Saien, Javad; Asrami, Mahdieh Razi; Salehzadeh, Sadegh (2018) J. Chem. Thermodyn. 119, 76-83."}, "constr": [], "phases": ["Liquid"], "title": "Refraction, surface tension, and speed of sound: Refractive index (Na D-line)", "components": [{"idout": "ABiCtA", "mw": "447.41", "name": "1-hexyl-3-methylimidazolium bis[(trifluoromethyl)sulfonyl]imide", "formula": "C<SUB>12</SUB>H<SUB>19</SUB>F<SUB>6</SUB>N<SUB>3</SUB>O<SUB>4</SUB>S<SUB>2</SUB>", "sample": [["Source:", "synthesized by the authors"], ["Purification:", "NMR (proton);Karl Fischer titration"], ["Purity:", "99 mass %;0.065 water mass %(dried by vacuum heating;solvent extraction)"]]}], "dhead": [["Pressure, kPa", null], ["Temperature, K", null], ["Refractive index (Na D-line)", "Liquid"]], "footer": "", "data": [[["81.5"], ["293.2"], ["1.43115", "0.0014"]], [["81.5"], ["298.2"], ["1.42975", "0.0014"]], [["81.5"], ["308.2"], ["1.42705", "0.0014"]]], "solvent": null, "expmeth": "Standard Abbe refractometry"}