{"phases": ["Liquid"], "ref": {"title": "Novel amino acid-based ionic liquid analogues: neutral hydroxylic and sulfur-containing amino acids", "full": "Mjalli, F. S.; Al-Hajri, R.; Al-Muhtaseb, A.; Ahmed, O.; Nagaraju, M. (2016) Asia-Pac. J. Chem. Eng. 11(5), 683-694."}, "constr": [], "expmeth": "Standard Abbe refractometry", "solvent": "L-threonine", "data": [[["303.15"], ["8"], ["101"], ["1.484", "0.002"]], [["303.15"], ["9"], ["101"], ["1.485", "0.002"]], [["303.15"], ["10"], ["101"], ["1.482", "0.002"]], [["313.15"], ["8"], ["101"], ["1.48", "0.002"]], [["313.15"], ["9"], ["101"], ["1.482", "0.002"]], [["313.15"], ["10"], ["101"], ["1.478", "0.002"]], [["323.15"], ["8"], ["101"], ["1.477", "0.002"]], [["323.15"], ["9"], ["101"], ["1.479", "0.002"]], [["323.15"], ["10"], ["101"], ["1.474", "0.002"]], [["333.15"], ["8"], ["101"], ["1.473", "0.002"]], [["333.15"], ["9"], ["101"], ["1.475", "0.002"]], [["333.15"], ["10"], ["101"], ["1.471", "0.002"]], [["343.15"], ["8"], ["101"], ["1.469", "0.002"]], [["343.15"], ["9"], ["101"], ["1.472", "0.002"]], [["343.15"], ["10"], ["101"], ["1.468", "0.002"]], [["353.15"], ["8"], ["101"], ["1.467", "0.002"]], [["353.15"], ["9"], ["101"], ["1.469", "0.002"]], [["353.15"], ["10"], ["101"], ["1.465", "0.002"]]], "footer": "", "dhead": [["Temperature, K", null], ["Mole ratio to solvent: tetrabutylammonium chloride", "Liquid"], ["Pressure, kPa", null], ["Refractive index (Na D-line)", "Liquid"]], "components": [{"mw": "119.12", "idout": "AAWvKW", "name": "L-threonine", "formula": "C<SUB>4</SUB>H<SUB>9</SUB>NO<SUB>3</SUB>", "sample": [["Source:", "commercial source"], ["Initial purification:", "stated by supplier"], ["Initial purity:", "99 % (basis not specified)"], ["Final purification:", "Karl Fischer titration"], ["Final purity:", "0.02 water mass %(dried by vacuum heating)"]]}, {"idout": "ABBXWo", "mw": "277.92", "name": "tetrabutylammonium chloride", "formula": "C<SUB>16</SUB>H<SUB>36</SUB>ClN", "sample": [["Source:", "commercial source"], ["Initial purification:", "stated by supplier"], ["Initial purity:", "99 % (basis not specified)"], ["Final purification:", "Karl Fischer titration"], ["Final purity:", "0.02 water mass %(dried by vacuum heating)"]]}], "title": "Refraction, surface tension, and speed of sound: Refractive index (Na D-line)"}