{"phases": ["Liquid"], "constr": [], "ref": {"title": "Thermophysical Properties of Dual Functionalized Imidazolium-Based Ionic Liquids", "full": "Muhammad, N.; Man, Z.; Ziyada, A. K.; Bustam, M. A.; Mutalib, M. I. A.; Wilfred, C. D.; Rafiq, S.; Tan, I. M. (2012) J. Chem. Eng. Data 57(3), 737-743."}, "expmeth": "Standard Abbe refractometry", "solvent": null, "data": [[["293.15"], ["101.325"], ["1.54996", "0.00052"]], [["298.15"], ["101.325"], ["1.54847", "0.00052"]], [["303.15"], ["101.325"], ["1.54699", "0.00052"]], [["308.15"], ["101.325"], ["1.54554", "0.00052"]], [["313.15"], ["101.325"], ["1.54412", "0.00052"]], [["318.15"], ["101.325"], ["1.54277", "0.00052"]], [["323.15"], ["101.325"], ["1.54133", "0.00052"]], [["328.15"], ["101.325"], ["1.53985", "0.00052"]], [["333.15"], ["101.325"], ["1.53847", "0.00052"]]], "footer": "", "dhead": [["Temperature, K", null], ["Pressure, kPa", null], ["Refractive index (Na D-line)", "Liquid"]], "components": [{"mw": "201.65", "idout": "AAmoWU", "formula": "C<SUB>8</SUB>H<SUB>12</SUB>ClN<SUB>3</SUB>O", "name": "1-(2-cyanoethyl)-3-(2-hydroxyethyl)-1H-imidazolium chloride", "sample": [["Source:", "synthesized by the authors"], ["Purification:", "estimation;Karl Fischer titration"], ["Purity:", "97.9 mass %;0.000386 water mass %"]]}], "title": "Refraction, surface tension, and speed of sound: Refractive index (Na D-line)"}