{"constr": [], "ref": {"title": "Systematic Dielectric and NMR Study of the Ionic Liquid 1-Alkyl-3-Methyl Imidazolium", "full": "Nakamura, K.; Shikata, T. (2010) ChemPhysChem 11(1), 285-294."}, "phases": ["Liquid"], "components": [{"name": "1-hexyl-3-methylimidazolium tetrafluoroborate", "formula": "C<SUB>10</SUB>H<SUB>19</SUB>BF<SUB>4</SUB>N<SUB>2</SUB>", "mw": "254.08", "idout": "AAwscj", "sample": [["Source:", "synthesized by the authors"], ["Purification:", "NMR (proton)"], ["Purity:", "99 % (basis not specified)(dried by vacuum heating;liquid chromatography)"]]}], "title": "Refraction, surface tension, and speed of sound: Refractive index (Na D-line)", "dhead": [["Temperature, K", null], ["Pressure, kPa", null], ["Refractive index (Na D-line)", "Liquid"]], "data": [[["298.1"], ["101.325"], ["1.428", "0.002"]]], "solvent": null, "footer": "", "expmeth": "Standard Abbe refractometry"}