{"components": [{"formula": "C<SUB>18</SUB>H<SUB>36</SUB>N<SUB>2</SUB>O<SUB>4</SUB>", "name": "N-methyl-N-octylmorpholinium N-acetyl-L-alaninate", "idout": "ABOMda", "mw": "344.50", "sample": [["Source:", "synthesized by the authors"], ["Purification:", "spectroscopy;Karl Fischer titration;ion chromatography"], ["Purity:", "99.5 mass %;0.07 water mass %;0.28 halide impurity mass %(crystallization from solution;dried by vacuum heating)"]]}], "title": "Refraction, surface tension, and speed of sound: Refractive index (Na D-line)", "dhead": [["Temperature, K", null], ["Pressure, kPa", null], ["Refractive index (Na D-line)", "Liquid"]], "data": [[["298.15"], ["101.325"], ["1.483", "0.0005"]], [["303.15"], ["101.325"], ["1.4816", "0.0005"]], [["308.15"], ["101.325"], ["1.48", "0.0005"]], [["313.15"], ["101.325"], ["1.4784", "0.0005"]], [["318.15"], ["101.325"], ["1.4768", "0.0005"]]], "solvent": null, "footer": "", "expmeth": "Standard Abbe refractometry", "constr": [], "ref": {"full": "Marcinkowski, L.; Szepinski, E.; Milewska, M. J.; Kloskowski, A. (2019) J. Mol. Liq. 284, 557-568.", "title": "Density, sound velocity, viscosity, and refractive index of new morpholinium ionic liquids with amino acid-based anions: Effect of temperature, alkyl chain length, and anion"}, "phases": ["Liquid"]}