{"ref": {"full": "AlTuwaim, M. S.; Alkhaldi, K. H. A. E.; Al-Jimaz, A. S.; Mohammad, A. A. (2014) J. Chem. Eng. Data 59(6), 1955-1963.", "title": "Temperature Dependence of Physicochemical Properties of Imidazolium-, Pyroldinium-, and Phosphonium-Based Ionic Liquids"}, "constr": [], "phases": ["Liquid"], "title": "Refraction, surface tension, and speed of sound: Refractive index (Na D-line)", "components": [{"mw": "208.23", "idout": "AAoCnc", "formula": "C<SUB>6</SUB>H<SUB>12</SUB>N<SUB>2</SUB>O<SUB>4</SUB>S", "name": "1,3-dimethylimidazolium methylsulfate", "sample": [["Source:", "commercial source"], ["Purification:", "stated by supplier"], ["Purity:", "97 % (basis not specified)"]]}], "dhead": [["Temperature, K", null], ["Pressure, kPa", null], ["Refractive index (Na D-line)", "Liquid"]], "footer": "", "data": [[["298.15"], ["101.325"], ["1.4817", "0.001"]], [["303.15"], ["101.325"], ["1.4811", "0.001"]], [["308.15"], ["101.325"], ["1.4804", "0.001"]], [["313.15"], ["101.325"], ["1.4797", "0.001"]], [["318.15"], ["101.325"], ["1.4792", "0.001"]], [["323.15"], ["101.325"], ["1.4785", "0.001"]], [["328.15"], ["101.325"], ["1.4779", "0.001"]], [["333.15"], ["101.325"], ["1.4771", "0.001"]]], "solvent": null, "expmeth": "Standard Abbe refractometry"}