{"dhead": [["Temperature, K", null], ["Pressure, kPa", null], ["Refractive index (Na D-line)", "Liquid"]], "components": [{"mw": "197.97", "idout": "AAmDom", "name": "1-ethyl-3-methylimidazolium tetrafluoroborate", "formula": "C<SUB>6</SUB>H<SUB>11</SUB>BF<SUB>4</SUB>N<SUB>2</SUB>", "sample": [["Source:", "commercial source"], ["Purification:", "stated by supplier"], ["Purity:", "98 mass %"]]}], "title": "Refraction, surface tension, and speed of sound: Refractive index (Na D-line)", "expmeth": "Standard Abbe refractometry", "solvent": null, "data": [[["293.15"], ["100"], ["1.414", "0.006"]], [["303.15"], ["100"], ["1.412", "0.006"]], [["313.15"], ["100"], ["1.409", "0.006"]], [["323.15"], ["100"], ["1.406", "0.006"]], [["323.15"], ["100"], ["1.407", "0.006"]], [["333.15"], ["100"], ["1.404", "0.006"]]], "footer": "", "ref": {"full": "Masilo, K.; Bahadur, I. (2021) J. Chem. Eng. Data 66(3), 1211-1230.", "title": "Intermolecular Interactions between 1-Ethyl-3-methylimidazolium-Based Ionic Liquids with Carboxylic Acid at Different Temperatures via Thermodynamic and Spectroscopic Studies"}, "constr": [], "phases": ["Liquid"]}