{"components": [{"name": "1-butyl-3-methyl-1H-imidazolium dimethylphosphate", "formula": "C<SUB>10</SUB>H<SUB>21</SUB>N<SUB>2</SUB>O<SUB>4</SUB>P", "idout": "AAyqGc", "mw": "264.26", "sample": [["Source:", "synthesized by the authors"], ["Purification:", "NMR (proton)"], ["Purity:", "99 % (basis not specified)(dried by vacuum heating;solvent extraction)"]]}], "title": "Refraction, surface tension, and speed of sound: Refractive index", "dhead": [["Temperature, K", null], ["Pressure, kPa", null], ["Wavelength, A", "Liquid"], ["Refractive index", "Liquid"]], "data": [[["353.15"], ["101"], ["450"], ["1.4735", "0.0011"]], [["353.15"], ["101"], ["532"], ["1.4664", "0.0011"]], [["353.15"], ["101"], ["632.8"], ["1.4612", "0.0011"]], [["353.15"], ["101"], ["964"], ["1.4544", "0.0012"]], [["353.15"], ["101"], ["1551"], ["1.4507", "0.0011"]], [["363.15"], ["101"], ["450"], ["1.4712", "0.001"]], [["363.15"], ["101"], ["532"], ["1.4642", "0.001"]], [["363.15"], ["101"], ["632.8"], ["1.4581", "0.0011"]], [["363.15"], ["101"], ["964"], ["1.4509", "0.0011"]], [["363.15"], ["101"], ["1551"], ["1.4482", "0.001"]], [["373.15"], ["101"], ["450"], ["1.4691", "0.0011"]], [["373.15"], ["101"], ["532"], ["1.4618", "0.0011"]], [["373.15"], ["101"], ["632.8"], ["1.4555", "0.001"]], [["373.15"], ["101"], ["964"], ["1.4484", "0.001"]], [["373.15"], ["101"], ["1551"], ["1.4462", "0.001"]], [["383.15"], ["101"], ["450"], ["1.4663", "0.0011"]], [["383.15"], ["101"], ["532"], ["1.4589", "0.0011"]], [["383.15"], ["101"], ["632.8"], ["1.4538", "0.001"]], [["383.15"], ["101"], ["964"], ["1.4472", "0.001"]], [["383.15"], ["101"], ["1551"], ["1.4439", "0.001"]], [["393.15"], ["101"], ["450"], ["1.4643", "0.001"]], [["393.15"], ["101"], ["532"], ["1.4569", "0.0011"]], [["393.15"], ["101"], ["632.8"], ["1.4508", "0.001"]], [["393.15"], ["101"], ["964"], ["1.4445", "0.001"]], [["393.15"], ["101"], ["1551"], ["1.4417", "0.001"]], [["403.15"], ["101"], ["450"], ["1.4622", "0.001"]], [["403.15"], ["101"], ["532"], ["1.4541", "0.0011"]], [["403.15"], ["101"], ["632.8"], ["1.4498", "0.001"]], [["403.15"], ["101"], ["964"], ["1.4432", "0.001"]], [["403.15"], ["101"], ["1551"], ["1.4396", "0.0011"]], [["413.15"], ["101"], ["450"], ["1.4603", "0.001"]], [["413.15"], ["101"], ["532"], ["1.4521", "0.001"]], [["413.15"], ["101"], ["632.8"], ["1.4466", "0.001"]], [["413.15"], ["101"], ["964"], ["1.4405", "0.001"]], [["413.15"], ["101"], ["1551"], ["1.4366", "0.001"]], [["423.15"], ["101"], ["450"], ["1.4593", "0.001"]], [["423.15"], ["101"], ["532"], ["1.4517", "0.001"]], [["423.15"], ["101"], ["632.8"], ["1.4463", "0.001"]], [["423.15"], ["101"], ["964"], ["1.4397", "0.001"]], [["423.15"], ["101"], ["1551"], ["1.4363", "0.001"]], [["433.15"], ["101"], ["450"], ["1.4568", "0.0011"]], [["433.15"], ["101"], ["532"], ["1.449", "0.001"]], [["433.15"], ["101"], ["632.8"], ["1.4444", "0.001"]], [["433.15"], ["101"], ["964"], ["1.4378", "0.001"]], [["433.15"], ["101"], ["1551"], ["1.4343", "0.001"]]], "solvent": null, "footer": "", "expmeth": "prism coupling refractometer", "ref": {"title": "Temperature effects on the viscosity and the wavelength-dependent refractive index of imidazolium-based ionic liquids with a phosphorus-containing anion", "full": "Chiappe, C.; Margari, P.; Mezzetta, A.; Pomelli, C. S.; Koutsoumpos, S.; Papamichael, M.; Giannios, P.; Moutzouris, K. (2017) Phys. Chem. Chem. Phys. 19(12), 8201-8209."}, "constr": [], "phases": ["Liquid"]}