{"components": [{"name": "glycerol", "formula": "C<SUB>3</SUB>H<SUB>8</SUB>O<SUB>3</SUB>", "mw": "92.09", "idout": "AARkmK", "sample": [["Source:", "commercial source"], ["Initial purification:", "stated by supplier"], ["Initial purity:", "98 mass %"], ["Final purification:", "Karl Fischer titration"], ["Final purity:", "0.002 water mass %(dried by vacuum heating)"]]}, {"formula": "C<SUB>16</SUB>H<SUB>36</SUB>ClN", "name": "tetrabutylammonium chloride", "mw": "277.92", "idout": "ABBXWo", "sample": [["Source:", "commercial source"], ["Initial purification:", "stated by supplier"], ["Initial purity:", "98 mass %"], ["Final purification:", "Karl Fischer titration"], ["Final purity:", "0.002 water mass %(dried by vacuum heating)"]]}], "title": "Refraction, surface tension, and speed of sound: Refractive index (Na D-line)", "dhead": [["Temperature, K", null], ["Mole fraction of tetrabutylammonium chloride", "Liquid"], ["Pressure, kPa", null], ["Refractive index (Na D-line)", "Liquid"]], "data": [[["293.15"], ["0.167"], ["101"], ["1.4781", "0.0021"]], [["293.15"], ["0.2"], ["101"], ["1.4776", "0.0021"]], [["293.15"], ["0.25"], ["101"], ["1.4802", "0.0021"]], [["303.15"], ["0.167"], ["101"], ["1.4754", "0.0021"]], [["303.15"], ["0.2"], ["101"], ["1.4747", "0.0021"]], [["303.15"], ["0.25"], ["101"], ["1.4774", "0.0021"]], [["313.15"], ["0.167"], ["101"], ["1.4726", "0.0021"]], [["313.15"], ["0.2"], ["101"], ["1.4718", "0.0021"]], [["313.15"], ["0.25"], ["101"], ["1.4745", "0.0021"]], [["323.15"], ["0.167"], ["101"], ["1.4697", "0.0021"]], [["323.15"], ["0.2"], ["101"], ["1.4687", "0.0021"]], [["323.15"], ["0.25"], ["101"], ["1.4716", "0.0021"]], [["333.15"], ["0.167"], ["101"], ["1.4668", "0.0021"]], [["333.15"], ["0.2"], ["101"], ["1.4658", "0.0021"]], [["333.15"], ["0.25"], ["101"], ["1.4685", "0.0021"]], [["343.15"], ["0.167"], ["101"], ["1.4638", "0.0021"]], [["343.15"], ["0.2"], ["101"], ["1.4626", "0.0021"]], [["343.15"], ["0.25"], ["101"], ["1.4652", "0.0021"]], [["353.15"], ["0.167"], ["101"], ["1.4607", "0.0021"]], [["353.15"], ["0.2"], ["101"], ["1.4603", "0.0021"]], [["353.15"], ["0.25"], ["101"], ["1.462", "0.0021"]]], "solvent": null, "footer": "", "expmeth": "Standard Abbe refractometry", "constr": [], "ref": {"title": "Tetrabutylammonium Chloride Based Ionic Liquid Analogues and Their Physical Properties", "full": "Mjalli, F. S.; Naser, J.; Jibril, B.; Alizadeh, V.; Gano, Z. (2014) J. Chem. Eng. Data 59(7), 2242-2251."}, "phases": ["Liquid"]}