{"title": "Refraction, surface tension, and speed of sound: Refractive index (Na D-line)", "components": [{"idout": "ACARUj", "mw": "542.60", "name": "1-hexyl-3,5-dimethyl-2-pentylpyridinium bis(trifluoromethylsulfonyl)imide", "formula": "C<SUB>20</SUB>H<SUB>32</SUB>F<SUB>6</SUB>N<SUB>2</SUB>O<SUB>4</SUB>S<SUB>2</SUB>", "sample": [["Source:", "synthesized by the authors"], ["Purification:", "NMR (proton);Karl Fischer titration"], ["Purity:", "99 mass %;0.103 water mass %(dried by vacuum heating;solvent extraction)"]]}], "dhead": [["Temperature, K", null], ["Pressure, kPa", null], ["Refractive index (Na D-line)", "Liquid"]], "footer": "", "data": [[["298.15"], ["101.325"], ["1.46074", "0.00037"]], [["303.15"], ["101.325"], ["1.4591", "0.00037"]], [["308.15"], ["101.325"], ["1.45746", "0.00037"]], [["313.15"], ["101.325"], ["1.45583", "0.00037"]], [["318.15"], ["101.325"], ["1.45417", "0.00037"]], [["323.15"], ["101.325"], ["1.45255", "0.00037"]], [["328.15"], ["101.325"], ["1.45093", "0.00037"]], [["333.15"], ["101.325"], ["1.4493", "0.00037"]], [["338.15"], ["101.325"], ["1.44769", "0.00037"]], [["343.15"], ["101.325"], ["1.44607", "0.00037"]]], "solvent": null, "expmeth": "Standard Abbe refractometry", "constr": [], "ref": {"full": "Verdia, P.; Hernaiz, M.; Gonzalez, E. J.; Macedo, E. A.; Salgado, J.; Tojo, E. (2014) J. Chem. Thermodyn. 69, 19-26.", "title": "Effect of the number, position and length of alkyl chains on the physical properties of polysubstituted pyridinium ionic liquids"}, "phases": ["Liquid"]}