{"components": [{"mw": "120.15", "idout": "AAXFxu", "formula": "C<SUB>8</SUB>H<SUB>8</SUB>O", "name": "acetophenone", "sample": [["Source:", "commercial source"], ["Initial purification:", "stated by supplier"], ["Initial purity:", "99 % (basis not specified)"], ["Final purification:", "Karl Fischer titration"], ["Final purity:", "0.06 water mass %"]]}, {"idout": "ABChJv", "mw": "284.19", "name": "1-butyl-3-methylimidazolium hexafluorophosphate", "formula": "C<SUB>8</SUB>H<SUB>15</SUB>F<SUB>6</SUB>N<SUB>2</SUB>P", "sample": [["Source:", "commercial source"], ["Initial purification:", "stated by supplier"], ["Initial purity:", "99 % (basis not specified)"], ["Final purification:", "Karl Fischer titration"], ["Final purity:", "0.06 water mass %"]]}], "title": "Refraction, surface tension, and speed of sound: Refractive index (Na D-line)", "dhead": [["Temperature, K", null], ["Mole fraction of 1-butyl-3-methylimidazolium hexafluorophosphate", "Liquid"], ["Pressure, kPa", null], ["Refractive index (Na D-line)", "Liquid"]], "data": [[["293.15"], ["0"], ["100"], ["1.533", "0.01"]], [["293.15"], ["0.05"], ["100"], ["1.526", "0.01"]], [["293.15"], ["0.0998"], ["100"], ["1.518", "0.01"]], [["293.15"], ["0.2001"], ["100"], ["1.502", "0.01"]], [["293.15"], ["0.303"], ["100"], ["1.486", "0.01"]], [["293.15"], ["0.4001"], ["100"], ["1.473", "0.01"]], [["293.15"], ["0.5027"], ["100"], ["1.461", "0.01"]], [["293.15"], ["0.6092"], ["100"], ["1.45", "0.01"]], [["293.15"], ["0.7001"], ["100"], ["1.444", "0.01"]], [["293.15"], ["0.8017"], ["100"], ["1.437", "0.01"]], [["293.15"], ["0.9087"], ["100"], ["1.429", "0.01"]], [["293.15"], ["0.9496"], ["100"], ["1.424", "0.01"]], [["293.15"], ["1"], ["100"], ["1.411", "0.01"]], [["303.15"], ["0"], ["100"], ["1.528", "0.01"]], [["303.15"], ["0.05"], ["100"], ["1.521", "0.01"]], [["303.15"], ["0.0998"], ["100"], ["1.512", "0.01"]], [["303.15"], ["0.2001"], ["100"], ["1.497", "0.01"]], [["303.15"], ["0.303"], ["100"], ["1.481", "0.01"]], [["303.15"], ["0.4001"], ["100"], ["1.468", "0.01"]], [["303.15"], ["0.5027"], ["100"], ["1.456", "0.01"]], [["303.15"], ["0.6092"], ["100"], ["1.445", "0.01"]], [["303.15"], ["0.7001"], ["100"], ["1.439", "0.01"]], [["303.15"], ["0.8017"], ["100"], ["1.432", "0.01"]], [["303.15"], ["0.9087"], ["100"], ["1.424", "0.01"]], [["303.15"], ["0.9496"], ["100"], ["1.419", "0.01"]], [["303.15"], ["1"], ["100"], ["1.408", "0.01"]], [["313.15"], ["0"], ["100"], ["1.523", "0.01"]], [["313.15"], ["0.05"], ["100"], ["1.517", "0.01"]], [["313.15"], ["0.0998"], ["100"], ["1.508", "0.01"]], [["313.15"], ["0.2001"], ["100"], ["1.493", "0.01"]], [["313.15"], ["0.303"], ["100"], ["1.478", "0.01"]], [["313.15"], ["0.4001"], ["100"], ["1.465", "0.01"]], [["313.15"], ["0.5027"], ["100"], ["1.453", "0.01"]], [["313.15"], ["0.6092"], ["100"], ["1.443", "0.01"]], [["313.15"], ["0.7001"], ["100"], ["1.437", "0.01"]], [["313.15"], ["0.8017"], ["100"], ["1.43", "0.01"]], [["313.15"], ["0.9087"], ["100"], ["1.422", "0.01"]], [["313.15"], ["0.9496"], ["100"], ["1.417", "0.01"]], [["313.15"], ["1"], ["100"], ["1.406", "0.01"]], [["323.15"], ["0"], ["100"], ["1.519", "0.01"]], [["323.15"], ["0.05"], ["100"], ["1.512", "0.01"]], [["323.15"], ["0.0998"], ["100"], ["1.505", "0.01"]], [["323.15"], ["0.2001"], ["100"], ["1.489", "0.01"]], [["323.15"], ["0.303"], ["100"], ["1.474", "0.01"]], [["323.15"], ["0.4001"], ["100"], ["1.462", "0.01"]], [["323.15"], ["0.5027"], ["100"], ["1.45", "0.01"]], [["323.15"], ["0.6092"], ["100"], ["1.441", "0.01"]], [["323.15"], ["0.7001"], ["100"], ["1.435", "0.01"]], [["323.15"], ["0.8017"], ["100"], ["1.428", "0.01"]], [["323.15"], ["0.9087"], ["100"], ["1.421", "0.01"]], [["323.15"], ["0.9496"], ["100"], ["1.416", "0.01"]], [["323.15"], ["1"], ["100"], ["1.403", "0.01"]], [["333.15"], ["0"], ["100"], ["1.514", "0.01"]], [["333.15"], ["0.05"], ["100"], ["1.508", "0.01"]], [["333.15"], ["0.0998"], ["100"], ["1.501", "0.01"]], [["333.15"], ["0.2001"], ["100"], ["1.486", "0.01"]], [["333.15"], ["0.303"], ["100"], ["1.471", "0.01"]], [["333.15"], ["0.4001"], ["100"], ["1.459", "0.01"]], [["333.15"], ["0.5027"], ["100"], ["1.447", "0.01"]], [["333.15"], ["0.6092"], ["100"], ["1.438", "0.01"]], [["333.15"], ["0.7001"], ["100"], ["1.433", "0.01"]], [["333.15"], ["0.8017"], ["100"], ["1.426", "0.01"]], [["333.15"], ["0.9087"], ["100"], ["1.419", "0.01"]], [["333.15"], ["0.9496"], ["100"], ["1.414", "0.01"]], [["333.15"], ["1"], ["100"], ["1.4", "0.01"]]], "solvent": null, "footer": "", "expmeth": "Standard Abbe refractometry", "ref": {"full": "Bahadur, Indra; Kgomotso, Masilo; Ebenso, Eno E.; Redhi, Gan (2016) RSC Adv. 6(106), 104708-104723.", "title": "Influence of temperature on molecular interactions of imidazolium-based ionic liquids with acetophenone: thermodynamic properties and quantum chemical studies"}, "constr": [], "phases": ["Liquid"]}