{"title": "Refraction, surface tension, and speed of sound: Refractive index (Na D-line)", "components": [{"sample": [["Source:", "commercial source"], ["Purity:", "99.9 mass %(de-gassed by boiling or ultrasonically)"]], "name": "methanol", "formula": "CH<SUB>4</SUB>O", "idout": "AAGIBL", "mw": "32.04"}, {"sample": [["Source:", "commercial source"], ["Initial purification:", "stated by supplier"], ["Initial purity:", "99 mass %"], ["Final purification:", "ion-selective electrode;Karl Fischer titration"], ["Final purity:", "0.01 halide impurity mass %;0.007 water mass %(dried by vacuum heating)"]], "name": "1-hexyl-3-methylimidazolium bis[(trifluoromethyl)sulfonyl]imide", "formula": "C<SUB>12</SUB>H<SUB>19</SUB>F<SUB>6</SUB>N<SUB>3</SUB>O<SUB>4</SUB>S<SUB>2</SUB>", "mw": "447.41", "idout": "ABiCtA"}], "dhead": [["Mole fraction of methanol", "Liquid"], ["Pressure, kPa", null], ["Temperature, K", null], ["Refractive index (Na D-line)", "Liquid"]], "footer": "", "data": [[["0"], ["101.3"], ["298.15"], ["1.43024", "0.00037"]], [["0.0538"], ["101.3"], ["298.15"], ["1.42948", "0.00037"]], [["0.1081"], ["101.3"], ["298.15"], ["1.42869", "0.00036"]], [["0.1812"], ["101.3"], ["298.15"], ["1.42749", "0.00036"]], [["0.2739"], ["101.3"], ["298.15"], ["1.42575", "0.00035"]], [["0.3962"], ["101.3"], ["298.15"], ["1.42303", "0.00035"]], [["0.4824"], ["101.3"], ["298.15"], ["1.42026", "0.00036"]], [["0.5846"], ["101.3"], ["298.15"], ["1.41597", "0.00038"]], [["0.6882"], ["101.3"], ["298.15"], ["1.40963", "0.00046"]], [["0.7994"], ["101.3"], ["298.15"], ["1.39797", "0.00067"]], [["0.8991"], ["101.3"], ["298.15"], ["1.37814", "0.001"]], [["0.9495"], ["101.3"], ["298.15"], ["1.35929", "0.0018"]], [["0.9802"], ["101.3"], ["298.15"], ["1.34219", "0.0026"]], [["1"], ["101.3"], ["298.15"], ["1.32657", "0.00031"]]], "solvent": null, "expmeth": "Standard Abbe refractometry", "constr": [], "ref": {"full": "Gonzalez, E. J.; Dominguez, A.; Eugenia, M. (2012) J. Chem. Thermodyn. 47, 300-311.", "title": "Excess properties of binary mixtures containing 1-hexyl-3-methylimidazolium bis(trifluoromethylsulfonyl)imide ionic liquid and polar organic compounds"}, "phases": ["Liquid"]}