{"expmeth": "Standard Abbe refractometry", "footer": "", "solvent": null, "data": [[["281.275"], ["101"], ["632.8"], ["1.4258", "0.0004"]], [["283.268"], ["101"], ["632.8"], ["1.4256", "0.0004"]], [["285.441"], ["101"], ["632.8"], ["1.4253", "0.0004"]], [["287.215"], ["101"], ["632.8"], ["1.425", "0.0004"]], [["289.171"], ["101"], ["632.8"], ["1.4248", "0.0004"]], [["291.346"], ["101"], ["632.8"], ["1.4246", "0.0004"]], [["292.361"], ["101"], ["632.8"], ["1.4245", "0.0004"]], [["293.46"], ["101"], ["632.8"], ["1.4245", "0.0004"]], [["294.187"], ["101"], ["632.8"], ["1.4245", "0.0004"]], [["294.915"], ["101"], ["632.8"], ["1.4245", "0.0004"]], [["295.303"], ["101"], ["632.8"], ["1.4245", "0.0004"]], [["295.691"], ["101"], ["632.8"], ["1.4245", "0.0004"]], [["296.081"], ["101"], ["632.8"], ["1.4246", "0.0004"]], [["296.49"], ["101"], ["632.8"], ["1.4246", "0.0004"]], [["296.883"], ["101"], ["632.8"], ["1.4247", "0.0004"]], [["297.22"], ["101"], ["632.8"], ["1.4248", "0.0004"]], [["297.472"], ["101"], ["632.8"], ["1.4249", "0.0004"]], [["297.725"], ["101"], ["632.8"], ["1.425", "0.0004"]], [["297.976"], ["101"], ["632.8"], ["1.4251", "0.0004"]], [["298.16"], ["101"], ["632.8"], ["1.4252", "0.0004"]], [["298.365"], ["101"], ["632.8"], ["1.4253", "0.0004"]], [["298.547"], ["101"], ["632.8"], ["1.4254", "0.0004"]], [["298.679"], ["101"], ["632.8"], ["1.4255", "0.0004"]], [["298.782"], ["101"], ["632.8"], ["1.4256", "0.0004"]], [["298.87"], ["101"], ["632.8"], ["1.4257", "0.0004"]], [["298.957"], ["101"], ["632.8"], ["1.4258", "0.0004"]], [["299.078"], ["101"], ["632.8"], ["1.426", "0.0004"]], [["299.186"], ["101"], ["632.8"], ["1.4262", "0.0004"]], [["299.238"], ["101"], ["632.8"], ["1.4263", "0.0004"]], [["299.287"], ["101"], ["632.8"], ["1.4264", "0.0004"]], [["299.321"], ["101"], ["632.8"], ["1.4265", "0.0004"]], [["299.353"], ["101"], ["632.8"], ["1.4267", "0.0004"]], [["299.385"], ["101"], ["632.8"], ["1.427", "0.0004"]], [["299.397"], ["101"], ["632.8"], ["1.4273", "0.0004"]]], "dhead": [["Temperature, K", null], ["Pressure, kPa", null], ["Wavelength, A", "Liquid mixture 1"], ["Refractive index", "Liquid mixture 2"]], "title": "Refraction, surface tension, and speed of sound: Refractive index", "components": [{"sample": [["Source:", "commercial source"], ["Purification:", "stated by supplier"], ["Purity:", "99.5 % (basis not specified)"], ["Purity analysis:", "molecular sieve treatment"]], "mw": "76.09", "idout": "AAOgLD", "name": "propan-1,3-diol", "formula": "C<SUB>3</SUB>H<SUB>8</SUB>O<SUB>2</SUB>"}, {"sample": [["Source:", "commercial source"], ["Purification:", "stated by supplier"], ["Purity:", "99 % (basis not specified)"]], "formula": "C<SUB>8</SUB>H<SUB>15</SUB>BF<SUB>4</SUB>N<SUB>2</SUB>", "name": "1-butyl-3-methylimidazolium tetrafluoroborate", "idout": "AArYBF", "mw": "226.03"}], "phases": ["Liquid mixture 2", "Liquid mixture 1"], "ref": {"full": "Lv, H.; Guo, Y.; An, X.; Sheng, W. (2010) J. Chem. Eng. Data 55(7), 2482-2488.", "title": "Liquid-Liquid Coexistence Curves of {x 1-Butyl-3-methylimidazolium Tetrafluoroborate + (1 - x) 1,3-Propanediol} and {x 1-Butyl-3-methylimidazolium Tetrafluoroborate + (1 - x) 1,4-Butanediol}"}, "constr": []}