{"expmeth": "Standard Abbe refractometry", "data": [[["0.008"], ["100"], ["313.15"], ["1.42305", "0.0007"]], [["0.008"], ["10200"], ["313.15"], ["1.42305", "0.0007"]], [["0.015"], ["100"], ["313.15"], ["1.42222", "0.0007"]], [["0.015"], ["10200"], ["313.15"], ["1.42222", "0.0007"]], [["0.032"], ["100"], ["313.15"], ["1.41981", "0.0007"]], [["0.032"], ["10200"], ["313.15"], ["1.41981", "0.0007"]], [["0.084"], ["100"], ["313.15"], ["1.41301", "0.0007"]], [["0.084"], ["10200"], ["313.15"], ["1.41301", "0.0007"]], [["0.156"], ["100"], ["313.15"], ["1.40517", "0.0007"]], [["0.156"], ["10200"], ["313.15"], ["1.40517", "0.0007"]], [["0.202"], ["100"], ["313.15"], ["1.40056", "0.0007"]], [["0.202"], ["10200"], ["313.15"], ["1.40056", "0.0007"]], [["0.385"], ["100"], ["313.15"], ["1.38611", "0.0007"]], [["0.385"], ["10200"], ["313.15"], ["1.38611", "0.0007"]], [["0.48"], ["100"], ["313.15"], ["1.37983", "0.0007"]], [["0.48"], ["10200"], ["313.15"], ["1.37983", "0.00071"]]], "solvent": null, "footer": "", "dhead": [["Weight fraction of ethanol", "Liquid"], ["Pressure, kPa", null], ["Temperature, K", null], ["Refractive index (Na D-line)", "Liquid"]], "components": [{"mw": "46.07", "idout": "AAIsrh", "formula": "C<SUB>2</SUB>H<SUB>6</SUB>O", "name": "ethanol", "sample": [["Source:", "commercial source"], ["Purification:", "stated by supplier"], ["Purity:", "99 mass %"], ["Purity analysis:", "de-gassed by boiling or ultrasonically;molecular sieve treatment"]]}, {"sample": [["Source:", "commercial source"], ["Initial purification:", "stated by supplier"], ["Initial purity:", "99 mass %"], ["Final purification:", "ion-selective electrode;Karl Fischer titration"], ["Final purity:", "0.01 halide impurity mass %;0.001 water mass %(dried by vacuum heating)"]], "name": "1-butyl-3-methylimidazolium bis(trifluoromethylsulfonyl)imide", "formula": "C<SUB>10</SUB>H<SUB>15</SUB>F<SUB>6</SUB>N<SUB>3</SUB>O<SUB>4</SUB>S<SUB>2</SUB>", "idout": "ABchwx", "mw": "419.36"}], "title": "Refraction, surface tension, and speed of sound: Refractive index (Na D-line)", "phases": ["Liquid"], "constr": [], "ref": {"full": "Seoane, R. G.; Gonzalez, E. J.; Gonzalez, B. (2012) J. Chem. Thermodyn. 53, 152-157.", "title": "1-Alkyl-3-methylimidazolium bis(trifluoromethylsulfonyl)imide ionic liquids as solvents in the separation of azeotropic mixtures"}}