{"components": [{"formula": "C<SUB>5</SUB>H<SUB>10</SUB>O<SUB>2</SUB>", "name": "1-methylethyl ethanoate", "idout": "AAThgV", "mw": "102.13", "sample": [["Source:", "commercial source"], ["Purification:", "stated by supplier"], ["Purity:", "99.6 mass %"]]}, {"formula": "C<SUB>10</SUB>H<SUB>15</SUB>F<SUB>6</SUB>N<SUB>3</SUB>O<SUB>4</SUB>S<SUB>2</SUB>", "name": "1-butyl-3-methylimidazolium bis(trifluoromethylsulfonyl)imide", "idout": "ABchwx", "mw": "419.36", "sample": [["Source:", "synthesized by the authors"], ["Purification:", "Karl Fischer titration;NMR (proton)"], ["Purity:", "0.00463 water mass %;99 mass %"]]}], "title": "Refraction, surface tension, and speed of sound: Refractive index (Na D-line)", "dhead": [["Mole fraction of 1-methylethyl ethanoate", "Liquid"], ["Pressure, kPa", null], ["Temperature, K", null], ["Refractive index (Na D-line)", "Liquid"]], "data": [[["0.0514"], ["101"], ["298.15"], ["1.42609", "0.00037"]], [["0.1096"], ["101"], ["298.15"], ["1.42501", "0.00036"]], [["0.1554"], ["101"], ["298.15"], ["1.42412", "0.00036"]], [["0.1972"], ["101"], ["298.15"], ["1.42326", "0.00036"]], [["0.2961"], ["101"], ["298.15"], ["1.42092", "0.00035"]], [["0.4241"], ["101"], ["298.15"], ["1.41733", "0.00034"]], [["0.5168"], ["101"], ["298.15"], ["1.4142", "0.00034"]], [["0.5998"], ["101"], ["298.15"], ["1.4107", "0.00034"]], [["0.7017"], ["101"], ["298.15"], ["1.40538", "0.00033"]], [["0.7981"], ["101"], ["298.15"], ["1.39882", "0.00033"]], [["0.8918"], ["101"], ["298.15"], ["1.39016", "0.00032"]]], "solvent": null, "footer": "", "expmeth": "Standard Abbe refractometry", "constr": [], "ref": {"full": "Andreatta, A. E.; Francisco, M.; Rodil, E.; Soto, A.; Arce, A. (2011) Fluid Phase Equilib. 300(1-2), 162-171.", "title": "Isobaric vapour liquid equilibria and physical properties for isopropyl acetate + isopropanol + 1-butyl-3-methyl-imidazolium bis(trifluoromethylsulfonyl)imide mixtures"}, "phases": ["Liquid"]}