{"components": [{"sample": [["Source:", "commercial source"], ["Purification:", "stated by supplier"], ["Purity:", "99.8 % (basis not specified)"]], "idout": "AAGIBL", "mw": "32.04", "name": "methanol", "formula": "CH<SUB>4</SUB>O"}, {"sample": [["Source:", "commercial source"], ["Initial purification:", "stated by supplier"], ["Initial purity:", "98 % (basis not specified)"], ["Final purification:", "Karl Fischer titration"], ["Final purity:", "0.06 water mass %(de-gassed by evacuation;dried by oven heating)"]], "mw": "169.25", "idout": "AAgcST", "formula": "C<SUB>7</SUB>H<SUB>11</SUB>N<SUB>3</SUB>S", "name": "1-ethyl-3-methylimidazolium thiocyanate"}], "title": "Refraction, surface tension, and speed of sound: Refractive index (Na D-line)", "dhead": [["Mole fraction of methanol", "Liquid"], ["Temperature, K", null], ["Pressure, kPa", null], ["Refractive index (Na D-line)", "Liquid"]], "solvent": null, "data": [[["0"], ["298.15"], ["100"], ["1.55065", "0.00052"]], [["0.1297"], ["298.15"], ["100"], ["1.54281", "0.00049"]], [["0.2018"], ["298.15"], ["100"], ["1.53843", "0.00047"]], [["0.3185"], ["298.15"], ["100"], ["1.52943", "0.00044"]], [["0.4076"], ["298.15"], ["100"], ["1.51995", "0.00042"]], [["0.5037"], ["298.15"], ["100"], ["1.50836", "0.0004"]], [["0.5936"], ["298.15"], ["100"], ["1.49377", "0.00039"]], [["0.6923"], ["298.15"], ["100"], ["1.47381", "0.00038"]], [["0.805"], ["298.15"], ["100"], ["1.44104", "0.00038"]], [["0.9014"], ["298.15"], ["100"], ["1.39839", "0.00041"]], [["1"], ["298.15"], ["100"], ["1.3266", "0.00033"]]], "footer": "", "expmeth": "Standard Abbe refractometry", "constr": [], "ref": {"full": "Wojtczuk, Marta K.; Caeiro, Nuria; Rodriguez, Hector; Rodil, Eva; Soto, Ana (2020) Sep. Purif. Technol. 248, 117103.", "title": "Recovery of the ionic liquids [C2mim][OAc] or [C2mim][SCN] by distillation from their binary mixtures with methanol or ethanol"}, "phases": ["Liquid"]}