{"components": [{"name": "ethyl acetate", "formula": "C<SUB>4</SUB>H<SUB>8</SUB>O<SUB>2</SUB>", "idout": "AAQxSq", "mw": "88.11", "sample": [["Source:", "commercial source"], ["Purification:", "gas chromatography"], ["Purity:", "99.8 mass %(de-gassed by boiling or ultrasonically;molecular sieve treatment)"]]}, {"sample": [["Source:", "commercial source"], ["Purification:", "Karl Fischer titration;gas chromatography"], ["Purity:", "0.03 water mass %;98 mass %(dried by vacuum heating)"]], "name": "1-butyl-3-methylimidazolium hexafluorophosphate", "formula": "C<SUB>8</SUB>H<SUB>15</SUB>F<SUB>6</SUB>N<SUB>2</SUB>P", "idout": "ABChJv", "mw": "284.19"}], "title": "Refraction, surface tension, and speed of sound: Refractive index (Na D-line)", "dhead": [["Temperature, K", null], ["Mole fraction of 1-butyl-3-methylimidazolium hexafluorophosphate", "Liquid"], ["Pressure, kPa", null], ["Refractive index (Na D-line)", "Liquid"]], "data": [[["293.15"], ["0"], ["101"], ["1.37241", "0.00082"]], [["293.15"], ["0.052"], ["101"], ["1.37948", "0.00071"]], [["293.15"], ["0.0979"], ["101"], ["1.38419", "0.0007"]], [["293.15"], ["0.198"], ["101"], ["1.39206", "0.00068"]], [["293.15"], ["0.2939"], ["101"], ["1.39736", "0.0007"]], [["293.15"], ["0.3968"], ["101"], ["1.40129", "0.00071"]], [["293.15"], ["0.4883"], ["101"], ["1.40391", "0.00071"]], [["293.15"], ["0.5936"], ["101"], ["1.40599", "0.00073"]], [["293.15"], ["0.7"], ["101"], ["1.40788", "0.00073"]], [["293.15"], ["0.8146"], ["101"], ["1.40911", "0.00076"]], [["293.15"], ["0.8997"], ["101"], ["1.40991", "0.00077"]], [["293.15"], ["0.9499"], ["101"], ["1.41046", "0.00077"]], [["293.15"], ["1"], ["101"], ["1.41069", "0.00078"]], [["298.15"], ["0"], ["101"], ["1.36977", "0.00082"]], [["298.15"], ["0.052"], ["101"], ["1.37726", "0.00076"]], [["298.15"], ["0.0979"], ["101"], ["1.38208", "0.00074"]], [["298.15"], ["0.198"], ["101"], ["1.39005", "0.00074"]], [["298.15"], ["0.2939"], ["101"], ["1.39538", "0.00075"]], [["298.15"], ["0.3968"], ["101"], ["1.39946", "0.00074"]], [["298.15"], ["0.4883"], ["101"], ["1.4023", "0.00073"]], [["298.15"], ["0.5936"], ["101"], ["1.40451", "0.00073"]], [["298.15"], ["0.7"], ["101"], ["1.40638", "0.00075"]], [["298.15"], ["0.8146"], ["101"], ["1.40768", "0.00076"]], [["298.15"], ["0.8997"], ["101"], ["1.40855", "0.00077"]], [["298.15"], ["0.9499"], ["101"], ["1.40915", "0.00077"]], [["298.15"], ["1"], ["101"], ["1.40937", "0.00078"]], [["303.15"], ["0"], ["101"], ["1.36712", "0.00082"]], [["303.15"], ["0.052"], ["101"], ["1.3752", "0.00084"]], [["303.15"], ["0.0979"], ["101"], ["1.38016", "0.0008"]], [["303.15"], ["0.198"], ["101"], ["1.38819", "0.00083"]], [["303.15"], ["0.2939"], ["101"], ["1.39346", "0.00079"]], [["303.15"], ["0.3968"], ["101"], ["1.39774", "0.00076"]], [["303.15"], ["0.4883"], ["101"], ["1.40065", "0.00076"]], [["303.15"], ["0.5936"], ["101"], ["1.40301", "0.00075"]], [["303.15"], ["0.7"], ["101"], ["1.4049", "0.00076"]], [["303.15"], ["0.8146"], ["101"], ["1.40632", "0.00076"]], [["303.15"], ["0.8997"], ["101"], ["1.40723", "0.00076"]], [["303.15"], ["0.9499"], ["101"], ["1.40793", "0.00078"]], [["303.15"], ["1"], ["101"], ["1.40808", "0.00078"]]], "solvent": null, "footer": "", "expmeth": "Standard Abbe refractometry", "ref": {"title": "Thermodynamic Properties of Ionic Liquids in Organic Solvents from (293.15 to 303.15) K", "full": "Pereiro, A. B.; Rodriguez, A. (2007) J. Chem. Eng. Data 52(2), 600-608."}, "constr": [], "phases": ["Liquid"]}