{"title": "Refraction, surface tension, and speed of sound: Refractive index (Na D-line)", "components": [{"sample": [["Source:", "commercial source"], ["Purification:", "stated by supplier"], ["Purity:", "95 % (basis not specified)"]], "idout": "AAtWMw", "mw": "236.29", "name": "1-butyl-3-methylimidazolium hydrogen sulfate", "formula": "C<SUB>8</SUB>H<SUB>16</SUB>N<SUB>2</SUB>O<SUB>4</SUB>S"}], "dhead": [["Temperature, K", null], ["Pressure, kPa", null], ["Refractive index (Na D-line)", "Liquid"]], "footer": "", "data": [[["298.15"], ["101.325"], ["1.5043", "0.0013"]], [["303.15"], ["101.325"], ["1.5", "0.0013"]], [["308.15"], ["101.325"], ["1.4965", "0.0013"]], [["313.15"], ["101.325"], ["1.4914", "0.0013"]], [["318.15"], ["101.325"], ["1.4857", "0.0013"]], [["323.15"], ["101.325"], ["1.4813", "0.0013"]], [["328.15"], ["101.325"], ["1.4762", "0.0013"]], [["333.15"], ["101.325"], ["1.4721", "0.0013"]]], "solvent": null, "expmeth": "Standard Abbe refractometry", "constr": [], "ref": {"title": "Temperature Dependence of Physicochemical Properties of Imidazolium-, Pyroldinium-, and Phosphonium-Based Ionic Liquids", "full": "AlTuwaim, M. S.; Alkhaldi, K. H. A. E.; Al-Jimaz, A. S.; Mohammad, A. A. (2014) J. Chem. Eng. Data 59(6), 1955-1963."}, "phases": ["Liquid"]}