{"expmeth": "Standard Abbe refractometry", "data": [[["298.2"], ["0"], ["0.337"], ["100"], ["1.36524", "0.0013"]], [["298.2"], ["0.0629"], ["0.263"], ["100"], ["1.36859", "0.0013"]], [["298.2"], ["0.1395"], ["0.183"], ["100"], ["1.37503", "0.0018"]], [["298.2"], ["0.2254"], ["0.12"], ["100"], ["1.38468", "0.0019"]], [["298.2"], ["0.3185"], ["0.067"], ["100"], ["1.39671", "0.0018"]], [["298.2"], ["0.4118"], ["0.035"], ["100"], ["1.41133", "0.0019"]], [["298.2"], ["0.5068"], ["0.011"], ["100"], ["1.42801", "0.0018"]], [["298.2"], ["0.5934"], ["0.007"], ["100"], ["1.4448", "0.0018"]], [["298.2"], ["0.6819"], ["0.0015"], ["100"], ["1.46545", "0.0013"]], [["298.2"], ["0.7675"], ["0.0012"], ["100"], ["1.48513", "0.0014"]], [["298.2"], ["0.853"], ["0.0008"], ["100"], ["1.50484", "0.0013"]], [["308.2"], ["0"], ["0.359"], ["100"], ["1.36619", "0.0013"]], [["308.2"], ["0.0616"], ["0.28"], ["100"], ["1.37028", "0.0019"]], [["308.2"], ["0.1373"], ["0.198"], ["100"], ["1.37597", "0.0017"]], [["308.2"], ["0.217"], ["0.135"], ["100"], ["1.3848", "0.0018"]], [["308.2"], ["0.3177"], ["0.072"], ["100"], ["1.39652", "0.0019"]], [["308.2"], ["0.4115"], ["0.039"], ["100"], ["1.41066", "0.0021"]], [["308.2"], ["0.5042"], ["0.019"], ["100"], ["1.42706", "0.0018"]], [["308.2"], ["0.5943"], ["0.0084"], ["100"], ["1.44368", "0.0026"]], [["308.2"], ["0.683"], ["0.0029"], ["100"], ["1.46413", "0.0013"]], [["308.2"], ["0.7695"], ["0.0015"], ["100"], ["1.48362", "0.0014"]], [["308.2"], ["0.8558"], ["0.0005"], ["100"], ["1.50327", "0.0013"]]], "solvent": null, "footer": "", "dhead": [["Temperature, K", null], ["Weight fraction of 1-ethyl-3-methylimidazolium chloride", "Liquid"], ["Weight fraction of rubidium sulfate", "Liquid"], ["Pressure, kPa", null], ["Refractive index (Na D-line)", "Liquid"]], "components": [{"mw": "146.62", "idout": "AAcKZa", "formula": "C<SUB>6</SUB>H<SUB>11</SUB>ClN<SUB>2</SUB>", "name": "1-ethyl-3-methylimidazolium chloride", "sample": [["Source:", "commercial source"], ["Purification:", "stated by supplier"], ["Purity:", "99 mass %"], ["Purity analysis:", "dried by vacuum heating"]]}, {"formula": "O<SUB>4</SUB>Rb<SUB>2</SUB>S", "name": "rubidium sulfate", "idout": "AAzRcq", "mw": "266.99", "sample": [["Source:", "commercial source"], ["Purification:", "stated by supplier"], ["Purity:", "99.5 mass %"], ["Purity analysis:", "dried by vacuum heating"]]}, {"name": "water", "formula": "H<SUB>2</SUB>O", "idout": "AADYJk", "mw": "18.02", "sample": [["Source:", "commercial source"], ["Purification:", "estimated by the compiler"], ["Purity:", "99.9 mol %(fractional distillation)"]]}], "title": "Refraction, surface tension, and speed of sound: Refractive index (Na D-line)", "phases": ["Liquid"], "constr": [], "ref": {"full": "Li, S.; Li, S.; Zhai, Q.; Jiang, Y.; Hu, M. (2019) J. Mol. Liq. 273, 455-462.", "title": "Solid - liquid and liquid - liquid equilibrium of the systems composed of [Cnmim]Cl/Br (n = 2, 4, 6, 8) + Rb2SO4/Cs2SO4 + H2O"}}