{"constr": [], "ref": {"title": "Composition and Temperature Dependence of Excess Properties of Binary Mixtures of Imidazolium Based Ionic Liquids: II ([Cnmim][PF6]) + Propylamine", "full": "Vaid, Z.; More, U. U.; Gardas, R. L.; Malek, N. I.; Ijardar, S. P. (2015) J. Solution Chem. 44, 718-741."}, "phases": ["Liquid"], "dhead": [["Temperature, K", null], ["Mole fraction of 1-hexyl-3-methylimidazolium hexafluorophosphate", "Liquid"], ["Pressure, kPa", null], ["Refractive index (Na D-line)", "Liquid"]], "components": [{"mw": "59.11", "idout": "AALTAi", "name": "propan-1-amine", "formula": "C<SUB>3</SUB>H<SUB>9</SUB>N", "sample": [["Source:", "commercial source"], ["Initial purification:", "stated by supplier"], ["Initial purity:", "99 mass %"], ["Final purification:", "gas chromatography"], ["Final purity:", "99.6 mass %(fractional distillation;molecular sieve treatment)"]]}, {"formula": "C<SUB>10</SUB>H<SUB>19</SUB>F<SUB>6</SUB>N<SUB>2</SUB>P", "name": "1-hexyl-3-methylimidazolium hexafluorophosphate", "mw": "312.24", "idout": "ABICIG", "sample": [["Source:", "synthesized by the authors"], ["Purification:", "NMR (proton)"], ["Purity:", "98 mass %"]]}], "title": "Refraction, surface tension, and speed of sound: Refractive index (Na D-line)", "expmeth": "Standard Abbe refractometry", "data": [[["293.15"], ["0.0974"], ["100"], ["1.4035", "0.005"]], [["293.15"], ["0.21"], ["100"], ["1.4159", "0.005"]], [["293.15"], ["0.31"], ["100"], ["1.4225", "0.005"]], [["293.15"], ["0.4044"], ["100"], ["1.4245", "0.005"]], [["293.15"], ["0.5634"], ["100"], ["1.4251", "0.005"]], [["293.15"], ["0.6481"], ["100"], ["1.4246", "0.005"]], [["293.15"], ["0.7387"], ["100"], ["1.4241", "0.005"]], [["293.15"], ["0.845"], ["100"], ["1.423", "0.005"]], [["293.15"], ["0.9316"], ["100"], ["1.4219", "0.005"]], [["298.15"], ["0.0974"], ["100"], ["1.3973", "0.005"]], [["298.15"], ["0.21"], ["100"], ["1.4073", "0.005"]], [["298.15"], ["0.31"], ["100"], ["1.4127", "0.005"]], [["298.15"], ["0.4044"], ["100"], ["1.4162", "0.005"]], [["298.15"], ["0.5634"], ["100"], ["1.4166", "0.005"]], [["298.15"], ["0.6481"], ["100"], ["1.4173", "0.005"]], [["298.15"], ["0.7387"], ["100"], ["1.4179", "0.005"]], [["298.15"], ["0.845"], ["100"], ["1.4184", "0.005"]], [["298.15"], ["0.9316"], ["100"], ["1.419", "0.005"]], [["303.15"], ["0.0974"], ["100"], ["1.3959", "0.005"]], [["303.15"], ["0.21"], ["100"], ["1.4065", "0.005"]], [["303.15"], ["0.31"], ["100"], ["1.4118", "0.005"]], [["303.15"], ["0.4044"], ["100"], ["1.415", "0.005"]], [["303.15"], ["0.5634"], ["100"], ["1.4152", "0.005"]], [["303.15"], ["0.6481"], ["100"], ["1.4159", "0.005"]], [["303.15"], ["0.7387"], ["100"], ["1.4164", "0.005"]], [["303.15"], ["0.845"], ["100"], ["1.417", "0.005"]], [["303.15"], ["0.9316"], ["100"], ["1.4175", "0.005"]], [["308.15"], ["0.0974"], ["100"], ["1.3942", "0.005"]], [["308.15"], ["0.21"], ["100"], ["1.4053", "0.005"]], [["308.15"], ["0.31"], ["100"], ["1.411", "0.005"]], [["308.15"], ["0.4044"], ["100"], ["1.414", "0.005"]], [["308.15"], ["0.5634"], ["100"], ["1.414", "0.005"]], [["308.15"], ["0.6481"], ["100"], ["1.4146", "0.005"]], [["308.15"], ["0.7387"], ["100"], ["1.4151", "0.005"]], [["308.15"], ["0.845"], ["100"], ["1.4156", "0.005"]], [["308.15"], ["0.9316"], ["100"], ["1.4161", "0.005"]], [["313.15"], ["0.0974"], ["100"], ["1.393", "0.005"]], [["313.15"], ["0.21"], ["100"], ["1.4045", "0.005"]], [["313.15"], ["0.31"], ["100"], ["1.4104", "0.005"]], [["313.15"], ["0.4044"], ["100"], ["1.4128", "0.005"]], [["313.15"], ["0.5634"], ["100"], ["1.4128", "0.005"]], [["313.15"], ["0.6481"], ["100"], ["1.4134", "0.005"]], [["313.15"], ["0.7387"], ["100"], ["1.4138", "0.005"]], [["313.15"], ["0.845"], ["100"], ["1.4143", "0.005"]], [["313.15"], ["0.9316"], ["100"], ["1.4147", "0.005"]]], "solvent": null, "footer": ""}