{"title": "Refraction, surface tension, and speed of sound: Refractive index (Na D-line)", "components": [{"name": "dimethyl carbonate", "formula": "C<SUB>3</SUB>H<SUB>6</SUB>O<SUB>3</SUB>", "mw": "90.08", "idout": "AARQqy", "sample": [["Source:", "commercial source"], ["Purification:", "stated by supplier"], ["Purity:", "99 mass %"], ["Purity analysis:", "de-gassed by boiling or ultrasonically;molecular sieve treatment"]]}, {"mw": "312.24", "idout": "ABICIG", "name": "1-hexyl-3-methylimidazolium hexafluorophosphate", "formula": "C<SUB>10</SUB>H<SUB>19</SUB>F<SUB>6</SUB>N<SUB>2</SUB>P", "sample": [["Source:", "synthesized by the authors"]]}], "dhead": [["Mole fraction of 1-hexyl-3-methylimidazolium hexafluorophosphate", "Liquid"], ["Temperature, K", null], ["Pressure, kPa", null], ["Refractive index (Na D-line)", "Liquid"]], "footer": "", "data": [[["0"], ["298.15"], ["101"], ["1.3664", "0.00089"]], [["0.0524"], ["298.15"], ["101"], ["1.37624", "0.0009"]], [["0.1026"], ["298.15"], ["101"], ["1.38348", "0.00091"]], [["0.1915"], ["298.15"], ["101"], ["1.39262", "0.00093"]], [["0.2935"], ["298.15"], ["101"], ["1.39977", "0.00097"]], [["0.4"], ["298.15"], ["101"], ["1.40466", "0.001"]], [["0.5043"], ["298.15"], ["101"], ["1.40837", "0.001"]], [["0.5985"], ["298.15"], ["101"], ["1.41086", "0.0011"]], [["0.6999"], ["298.15"], ["101"], ["1.41318", "0.0011"]], [["0.8033"], ["298.15"], ["101"], ["1.41505", "0.0012"]], [["0.9001"], ["298.15"], ["101"], ["1.41653", "0.0013"]], [["0.95"], ["298.15"], ["101"], ["1.41717", "0.0013"]], [["1"], ["298.15"], ["101"], ["1.41787", "0.0013"]]], "solvent": null, "expmeth": "Standard Abbe refractometry", "constr": [], "ref": {"full": "Pereiro, A. B.; Tojo, E.; Rodriguez, A.; Canosa, J.; Tojo, J. (2006) J. Chem. Thermodyn. 38(6), 651-661.", "title": "Properties of ionic liquid HMIMPF6 with carbonates, ketones and alkyl acetates"}, "phases": ["Liquid"]}