{"title": "Refraction, surface tension, and speed of sound: Refractive index (Na D-line)", "components": [{"sample": [["Source:", "commercial source"], ["Initial purification:", "NMR (proton)"], ["Initial purity:", "98 mass %"], ["Final purification:", "Karl Fischer titration"], ["Final purity:", "0.0073 water mass %(dried by vacuum heating)"]], "idout": "AArYZH", "mw": "226.05", "name": "1-ethyl-3-methylimidazolium tetracyanoborate", "formula": "C<SUB>10</SUB>H<SUB>11</SUB>BN<SUB>6</SUB>"}], "dhead": [["Temperature, K", null], ["Pressure, kPa", null], ["Refractive index (Na D-line)", "Liquid"]], "footer": "", "data": [[["283.15"], ["101.325"], ["1.4533", "0.0012"]], [["293.15"], ["101.325"], ["1.4499", "0.0012"]], [["303.15"], ["101.325"], ["1.4465", "0.0012"]], [["313.15"], ["101.325"], ["1.4432", "0.0012"]]], "solvent": null, "expmeth": "Standard Abbe refractometry", "constr": [], "ref": {"full": "Koller, T.; Rausch, M. H.; Schulz, P. S.; Berger, M.; Wasserscheid, P.; Economou, I. G.; Leipertz, A.; Froba, A. P. (2012) J. Chem. Eng. Data 57(3), 828-835.", "title": "Viscosity, Interfacial Tension, Self-Diffusion Coefficient, Density, and Refractive Index of the Ionic Liquid 1-Ethyl-3-methylimidazolium Tetracyanoborate as a Function of Temperature at Atmospheric Pressure"}, "phases": ["Liquid"]}