{"ref": {"full": "Gouveia, A.; Tome, L.; Marrucho, I. (2016) J. Chem. Eng. Data 61(1), 83-93.", "title": "Density, Viscosity, and Refractive Index of Ionic Liquid Mixtures Containing Cyano and Amino Acid-Based Anions"}, "constr": [], "phases": ["Liquid"], "title": "Refraction, surface tension, and speed of sound: Refractive index (Na D-line)", "components": [{"idout": "AAtNQC", "mw": "235.30", "name": "1-ethyl-3-methylimidazolium taurinate", "formula": "C<SUB>8</SUB>H<SUB>17</SUB>N<SUB>3</SUB>O<SUB>3</SUB>S", "sample": [["Source:", "synthesized by the authors"], ["Purification:", "Karl Fischer titration;NMR (proton)"], ["Purity:", "0.2 water mass %;95 mol %(dried by vacuum heating)"]]}], "dhead": [["Temperature, K", null], ["Pressure, kPa", null], ["Refractive index (Na D-line)", "Liquid"]], "footer": "", "data": [[["293.15"], ["101"], ["1.5135", "0.0019"]], [["298.15"], ["101"], ["1.51217", "0.0019"]], [["303.15"], ["101"], ["1.51084", "0.0019"]], [["308.15"], ["101"], ["1.5095", "0.0019"]], [["313.15"], ["101"], ["1.50816", "0.0019"]], [["318.15"], ["101"], ["1.5068", "0.0019"]], [["323.15"], ["101"], ["1.50543", "0.0019"]], [["328.15"], ["101"], ["1.50403", "0.0019"]], [["333.15"], ["101"], ["1.5027", "0.0019"]], [["338.15"], ["101"], ["1.50136", "0.0019"]], [["343.15"], ["101"], ["1.49997", "0.0019"]], [["348.15"], ["101"], ["1.4986", "0.0019"]], [["353.15"], ["101"], ["1.49726", "0.0019"]]], "solvent": null, "expmeth": "Standard Abbe refractometry"}