{"phases": ["Liquid"], "ref": {"full": "Teodorescu, M. (2015) J. Chem. Thermodyn. 87, 58-64.", "title": "Isothermal (vapour + liquid) equilibrium and thermophysical properties for (1-butyl-3-methylimidazolium iodide + 1-butanol) binary system"}, "constr": [], "expmeth": "Standard Abbe refractometry", "data": [[["293.15"], ["101.325"], ["1.5825", "0.0011"]], [["298.15"], ["101.325"], ["1.581", "0.0011"]], [["308.15"], ["101.325"], ["1.5781", "0.0011"]]], "solvent": null, "footer": "", "dhead": [["Temperature, K", null], ["Pressure, kPa", null], ["Refractive index (Na D-line)", "Liquid"]], "components": [{"mw": "266.13", "idout": "AAzJkz", "name": "1-butyl-3-methylimidazolium iodide", "formula": "C<SUB>8</SUB>H<SUB>15</SUB>IN<SUB>2</SUB>", "sample": [["Source:", "commercial source"], ["Initial purification:", "stated by supplier"], ["Initial purity:", "99 mass %"], ["Final purification:", "Karl Fischer titration"], ["Final purity:", "0.07 water mass %(dried by vacuum heating)"]]}], "title": "Refraction, surface tension, and speed of sound: Refractive index (Na D-line)"}