{"ref": {"full": "Iglesias-Otero, M. A.; Troncoso, J.; Carballo, E. (2007) J. Solution Chem. 36, 1219-1230.", "title": "Density and Refractive Index for Binary Systems of the Ionic Liquid [Bmim][BF4] with Methanol, 1,3-Dichloropropane, and Dimethyl Carbonate"}, "constr": [], "phases": ["Liquid"], "dhead": [["Mole fraction of 1-butyl-3-methylimidazolium tetrafluoroborate", "Liquid"], ["Pressure, kPa", null], ["Temperature, K", null], ["Refractive index (Na D-line)", "Liquid"]], "components": [{"name": "1,3-dichloropropane", "formula": "C<SUB>3</SUB>H<SUB>6</SUB>Cl<SUB>2</SUB>", "idout": "AAVlJf", "mw": "112.98", "sample": [["Source:", "commercial source"], ["Purification:", "stated by supplier"], ["Purity:", "99 % (basis not specified)"]]}, {"name": "1-butyl-3-methylimidazolium tetrafluoroborate", "formula": "C<SUB>8</SUB>H<SUB>15</SUB>BF<SUB>4</SUB>N<SUB>2</SUB>", "idout": "AArYBF", "mw": "226.03", "sample": [["Source:", "commercial source"], ["Purification:", "stated by supplier"], ["Initial purity:", "99.8 % (basis not specified)"], ["Final purity:", "0.08 halide impurity mass %(dried by vacuum heating)"]]}], "title": "Refraction, surface tension, and speed of sound: Refractive index (Na D-line)", "expmeth": "Standard Abbe refractometry", "data": [[["0.0536"], ["101"], ["298.15"], ["1.4448", "0.0006"]], [["0.0536"], ["101"], ["298.15"], ["1.4448", "0.0006"]], [["0.1135"], ["101"], ["298.15"], ["1.443", "0.0006"]], [["0.1516"], ["101"], ["298.15"], ["1.4418", "0.0006"]], [["0.2101"], ["101"], ["298.15"], ["1.4401", "0.0006"]], [["0.2817"], ["101"], ["298.15"], ["1.4381", "0.0006"]], [["0.3528"], ["101"], ["298.15"], ["1.4359", "0.0006"]], [["0.3528"], ["101"], ["298.15"], ["1.4359", "0.0006"]], [["0.4042"], ["101"], ["298.15"], ["1.4345", "0.0006"]], [["0.4626"], ["101"], ["298.15"], ["1.433", "0.0006"]], [["0.5254"], ["101"], ["298.15"], ["1.4314", "0.0006"]], [["0.5466"], ["101"], ["298.15"], ["1.4309", "0.0006"]], [["0.5955"], ["101"], ["298.15"], ["1.4296", "0.0006"]], [["0.6786"], ["101"], ["298.15"], ["1.4276", "0.0006"]], [["0.7863"], ["101"], ["298.15"], ["1.4255", "0.0006"]], [["0.9028"], ["101"], ["298.15"], ["1.4234", "0.0006"]]], "solvent": null, "footer": ""}