{"ref": {"title": "Article  Physical and Excess Properties of Eight Binary Mixtures Containing Water and Ionic Liquids", "full": "Gonzalez, E. J.; Dominguez, A.; Macedo, E. A. (2012) J. Chem. Eng. Data 57(8), 2165-2176."}, "constr": [], "phases": ["Liquid"], "title": "Refraction, surface tension, and speed of sound: Refractive index (Na D-line)", "components": [{"sample": [["Source:", "commercial source"], ["Purification:", "estimated by the compiler"], ["Purity:", "99.9 mass %"]], "idout": "AADYJk", "mw": "18.02", "name": "water", "formula": "H<SUB>2</SUB>O"}, {"idout": "ABFdjO", "mw": "299.31", "name": "1-butyl-3-methylpyridinium trifluoromethanesulfonate", "formula": "C<SUB>11</SUB>H<SUB>16</SUB>F<SUB>3</SUB>NO<SUB>3</SUB>S", "sample": [["Source:", "commercial source"], ["Purification:", "NMR (proton)"], ["Initial purity:", "99 mass %"], ["Final purity:", "0.014 water mass %(dried by vacuum heating)"]]}], "dhead": [["Temperature, K", null], ["Mole fraction of water", "Liquid"], ["Pressure, kPa", null], ["Refractive index (Na D-line)", "Liquid"]], "footer": "", "data": [[["288.15"], ["0"], ["101"], ["1.46446", "0.00053"]], [["288.15"], ["0.0794"], ["101"], ["1.46358", "0.00052"]], [["288.15"], ["0.1517"], ["101"], ["1.46266", "0.00052"]], [["288.15"], ["0.2502"], ["101"], ["1.46111", "0.00051"]], [["288.15"], ["0.3515"], ["101"], ["1.4591", "0.0005"]], [["288.15"], ["0.4528"], ["101"], ["1.45651", "0.00049"]], [["288.15"], ["0.5628"], ["101"], ["1.45257", "0.00047"]], [["288.15"], ["0.6561"], ["101"], ["1.4477", "0.00045"]], [["288.15"], ["0.7494"], ["101"], ["1.44008", "0.00042"]], [["288.15"], ["0.8383"], ["101"], ["1.42747", "0.00043"]], [["288.15"], ["0.9201"], ["101"], ["1.40357", "0.00049"]], [["288.15"], ["0.9603"], ["101"], ["1.37998", "0.00069"]], [["288.15"], ["1"], ["101"], ["1.33349", "0.00041"]], [["298.15"], ["0"], ["101"], ["1.46155", "0.00053"]], [["298.15"], ["0.0794"], ["101"], ["1.46073", "0.00053"]], [["298.15"], ["0.1517"], ["101"], ["1.45982", "0.00052"]], [["298.15"], ["0.2502"], ["101"], ["1.45822", "0.00052"]], [["298.15"], ["0.3515"], ["101"], ["1.45623", "0.00051"]], [["298.15"], ["0.4528"], ["101"], ["1.45363", "0.00051"]], [["298.15"], ["0.5628"], ["101"], ["1.44968", "0.00051"]], [["298.15"], ["0.6561"], ["101"], ["1.44482", "0.0005"]], [["298.15"], ["0.7494"], ["101"], ["1.43724", "0.0005"]], [["298.15"], ["0.8383"], ["101"], ["1.42474", "0.00049"]], [["298.15"], ["0.9201"], ["101"], ["1.40118", "0.00047"]], [["298.15"], ["0.9603"], ["101"], ["1.37782", "0.00046"]], [["298.15"], ["1"], ["101"], ["1.33255", "0.00042"]], [["308.15"], ["0"], ["101"], ["1.45868", "0.00053"]], [["308.15"], ["0.0794"], ["101"], ["1.45784", "0.00053"]], [["308.15"], ["0.1517"], ["101"], ["1.45694", "0.00053"]], [["308.15"], ["0.2502"], ["101"], ["1.45535", "0.00052"]], [["308.15"], ["0.3515"], ["101"], ["1.45331", "0.00053"]], [["308.15"], ["0.4528"], ["101"], ["1.45069", "0.00053"]], [["308.15"], ["0.5628"], ["101"], ["1.44673", "0.00054"]], [["308.15"], ["0.6561"], ["101"], ["1.44183", "0.00056"]], [["308.15"], ["0.7494"], ["101"], ["1.43429", "0.00062"]], [["308.15"], ["0.8383"], ["101"], ["1.42192", "0.0008"]], [["308.15"], ["0.9201"], ["101"], ["1.39863", "0.00085"]], [["308.15"], ["0.9603"], ["101"], ["1.3757", "0.001"]], [["308.15"], ["1"], ["101"], ["1.33131", "0.00042"]]], "solvent": null, "expmeth": "Standard Abbe refractometry"}