{"components": [{"sample": [["Source:", "commercial source"], ["Purification:", "gas chromatography"], ["Purity:", "99.9 mol %"]], "idout": "AAIsrh", "mw": "46.07", "formula": "C<SUB>2</SUB>H<SUB>6</SUB>O", "name": "ethanol"}, {"sample": [["Source:", "commercial source"], ["Initial purification:", "gas chromatography"], ["Initial purity:", "99 mol %"], ["Final purification:", "Karl Fischer titration"], ["Final purity:", "0.05 water mass %"]], "name": "trihexyltetradecylphosphonium bis(2,4,4-trimethylpentyl)phosphinate", "formula": "C<SUB>48</SUB>H<SUB>102</SUB>O<SUB>2</SUB>P<SUB>2</SUB>", "mw": "773.29", "idout": "ACskOY"}], "title": "Refraction, surface tension, and speed of sound: Refractive index (Na D-line)", "dhead": [["Mole fraction of ethanol", "Liquid"], ["Pressure, kPa", null], ["Temperature, K", null], ["Refractive index (Na D-line)", "Liquid"]], "data": [[["0.051"], ["101"], ["298.15"], ["1.47094", "0.00041"]], [["0.1022"], ["101"], ["298.15"], ["1.47076", "0.00041"]], [["0.2136"], ["101"], ["298.15"], ["1.46988", "0.0004"]], [["0.305"], ["101"], ["298.15"], ["1.46895", "0.00039"]], [["0.4024"], ["101"], ["298.15"], ["1.46802", "0.00039"]], [["0.5019"], ["101"], ["298.15"], ["1.46563", "0.00038"]], [["0.5976"], ["101"], ["298.15"], ["1.46367", "0.00038"]], [["0.6989"], ["101"], ["298.15"], ["1.459", "0.00037"]], [["0.7998"], ["101"], ["298.15"], ["1.45104", "0.00037"]], [["0.9003"], ["101"], ["298.15"], ["1.44331", "0.00037"]], [["0.9499"], ["101"], ["298.15"], ["1.43816", "0.00037"]]], "solvent": null, "footer": "", "expmeth": "Standard Abbe refractometry", "ref": {"full": "Hwang, I.-C.; Kwon, R.-H.; Park, S.-J. (2013) Fluid Phase Equilib. 344, 32-37.", "title": "Azeotrope breaking for the system ethyl tert-butyl ether (ETBE) + ethanol at 313.15 K and excess properties at 298.15 K for mixtures of ETBE and ethanol with phosphonium-based ionic liquids"}, "constr": [], "phases": ["Liquid"]}