{"constr": [], "ref": {"title": "Excess Molar Volume, Refractive Index and Viscosity of N-Butylpyridinium  Tetrafluoroborate Ionic Liquid + Methanol Binary System", "full": "Xu, Y.; Huang, C.; Li, H. (2011) Gaoxiao Huaxue Gongcheng Xuebao 25(3), 370-375."}, "phases": ["Liquid"], "title": "Refraction, surface tension, and speed of sound: Refractive index (Na D-line)", "components": [{"formula": "CH<SUB>4</SUB>O", "name": "methanol", "idout": "AAGIBL", "mw": "32.04", "sample": [["Source:", "commercial source"]]}, {"idout": "AAquMR", "mw": "223.02", "formula": "C<SUB>9</SUB>H<SUB>14</SUB>BF<SUB>4</SUB>N", "name": "1-butylpyridinium tetrafluoroborate", "sample": [["Source:", "synthesized by the authors"]]}], "dhead": [["Mole fraction of 1-butylpyridinium tetrafluoroborate", "Liquid"], ["Pressure, kPa", null], ["Temperature, K", null], ["Refractive index (Na D-line)", "Liquid"]], "footer": "", "data": [[["0"], ["101.3"], ["298.15"], ["1.3279", "0.0011"]], [["0.0312"], ["101.3"], ["298.15"], ["1.3456", "0.0011"]], [["0.049"], ["101.3"], ["298.15"], ["1.3529", "0.0011"]], [["0.0913"], ["101.3"], ["298.15"], ["1.3678", "0.0011"]], [["0.1505"], ["101.3"], ["298.15"], ["1.3846", "0.0011"]], [["0.2376"], ["101.3"], ["298.15"], ["1.4001", "0.0011"]], [["0.3454"], ["101.3"], ["298.15"], ["1.4143", "0.0011"]], [["0.4619"], ["101.3"], ["298.15"], ["1.4248", "0.0011"]], [["0.6084"], ["101.3"], ["298.15"], ["1.431", "0.0011"]], [["0.8409"], ["101.3"], ["298.15"], ["1.4391", "0.0011"]], [["1"], ["101.3"], ["298.15"], ["1.442", "0.0011"]]], "solvent": null, "expmeth": "Standard Abbe refractometry"}