{"title": "Refraction, surface tension, and speed of sound: Refractive index (Na D-line)", "components": [{"sample": [["Source:", "commercial source"], ["Initial purification:", "stated by supplier"], ["Initial purity:", "98 % (basis not specified)"], ["Final purification:", "Karl Fischer titration"], ["Final purity:", "0.06 water mass %"]], "name": "1-ethyl-3-methylimidazolium ethyl sulfate", "formula": "C<SUB>8</SUB>H<SUB>16</SUB>N<SUB>2</SUB>O<SUB>4</SUB>S", "mw": "236.29", "idout": "AAtWDT"}], "dhead": [["Temperature, K", null], ["Pressure, kPa", null], ["Refractive index (Na D-line)", "Liquid"]], "footer": "", "data": [[["293.15"], ["100"], ["1.48", "0.01"]], [["303.15"], ["100"], ["1.478", "0.01"]], [["313.15"], ["100"], ["1.475", "0.01"]], [["323.15"], ["100"], ["1.472", "0.01"]], [["333.15"], ["100"], ["1.47", "0.01"]]], "solvent": null, "expmeth": "Standard Abbe refractometry", "constr": [], "ref": {"full": "Bahadur, Indra; Kgomotso, Masilo; Ebenso, Eno E.; Redhi, Gan (2016) RSC Adv. 6(106), 104708-104723.", "title": "Influence of temperature on molecular interactions of imidazolium-based ionic liquids with acetophenone: thermodynamic properties and quantum chemical studies"}, "phases": ["Liquid"]}