{"components": [{"name": "2-hydroxy-N,N,N-trimethylethanaminium hexanoate", "formula": "C<SUB>11</SUB>H<SUB>25</SUB>NO<SUB>3</SUB>", "idout": "AAqJgN", "mw": "219.32", "sample": [["Source:", "synthesized by the authors"], ["Initial purification:", "chemical analysis"], ["Initial purity:", "99 mass %"], ["Final purification:", "chemical analysis"], ["Final purity:", "0.0366 water mass %"]]}], "title": "Refraction, surface tension, and speed of sound: Refractive index (Na D-line)", "dhead": [["Temperature, K", null], ["Pressure, kPa", null], ["Refractive index (Na D-line)", "Liquid"]], "solvent": null, "data": [[["293.15"], ["101.325"], ["1.4726", "0.0004"]], [["298.15"], ["101.325"], ["1.4709", "0.0004"]], [["303.15"], ["101.325"], ["1.4692", "0.0004"]], [["308.15"], ["101.325"], ["1.4675", "0.0004"]], [["313.15"], ["101.325"], ["1.4658", "0.0004"]], [["318.15"], ["101.325"], ["1.464", "0.0004"]], [["323.15"], ["101.325"], ["1.4624", "0.0004"]], [["328.15"], ["101.325"], ["1.4607", "0.0004"]], [["333.15"], ["101.325"], ["1.459", "0.0004"]]], "footer": "", "expmeth": "Standard Abbe refractometry", "constr": [], "ref": {"title": "Synthesis and Physical Properties of Choline Carboxylate Ionic Liquids", "full": "Muhammad, N.; Hossain, M. I.; Man, Z.; El-Harbawi, M.; Bustam, M. A.; Noaman, Y. A.; Alitheen, N. B. M.; Ng, M. K.; Hefter, G.; Yin, C.-Y. (2012) J. Chem. Eng. Data 57(8), 2191-2196."}, "phases": ["Liquid"]}