{"ref": {"title": "Extractions of Alkaloids Codeine and Caffeine with [Bmim][BF4]/Carbohydrate Aqueous Biphasic Systems as a Novel Class of Liquid-Liquid Extraction Systems", "full": "Jamehbozorg, Bahman; Sadeghi, Rahmat (2019) J. Chem. Eng. Data 64(3), 916-925."}, "constr": [], "phases": ["Liquid"], "dhead": [["Temperature, K", null], ["Pressure, kPa", null], ["Weight fraction of 1-butyl-3-methylimidazolium tetrafluoroborate", "Liquid"], ["Refractive index (Na D-line)", "Liquid"]], "components": [{"name": "1-butyl-3-methylimidazolium tetrafluoroborate", "formula": "C<SUB>8</SUB>H<SUB>15</SUB>BF<SUB>4</SUB>N<SUB>2</SUB>", "mw": "226.03", "idout": "AArYBF", "sample": [["Source:", "synthesized by the authors"], ["Purification:", "NMR (proton)"], ["Purity:", "98 mass %"]]}, {"mw": "18.02", "idout": "AADYJk", "name": "water", "formula": "H<SUB>2</SUB>O", "sample": [["Source:", "commercial source"], ["Purification:", "estimated by the compiler"], ["Purity:", "99.9 mass %"]]}], "title": "Refraction, surface tension, and speed of sound: Refractive index (Na D-line)", "expmeth": "Standard Abbe refractometry", "data": [[["298.15"], ["84.5"], ["0.02"], ["1.3339", "0.00055"]], [["298.15"], ["84.5"], ["0.02"], ["1.33391", "0.00055"]], [["298.15"], ["84.5"], ["0.02"], ["1.33391", "0.00055"]], [["298.15"], ["84.5"], ["0.02"], ["1.33393", "0.00055"]], [["298.15"], ["84.5"], ["0.02"], ["1.33393", "0.00055"]]], "solvent": null, "footer": ""}