{"constr": [], "ref": {"full": "Kaneko, K.; Yoshimura, Y.; Shimizu, A. (2018) J. Mol. Liq. 250, 283-286.", "title": "Water concentration dependence of the refractive index of various ionic liquid-water mixtures"}, "phases": ["Liquid"], "dhead": [["Mole fraction of 1-methyl-3-octylimidazolium bromide", "Liquid"], ["Pressure, kPa", null], ["Temperature, K", null], ["Refractive index (Na D-line)", "Liquid"]], "components": [{"mw": "275.23", "idout": "ABAwEw", "name": "1-methyl-3-octylimidazolium bromide", "formula": "C<SUB>12</SUB>H<SUB>23</SUB>BrN<SUB>2</SUB>", "sample": [["Source:", "commercial source"], ["Initial purification:", "stated by supplier"], ["Initial purity:", "99 mass %"], ["Final purification:", "NMR (proton)"], ["Final purity:", "0.0458 water mass %(de-gassed by evacuation;dried by vacuum heating)"]]}, {"mw": "18.02", "idout": "AADYJk", "name": "water", "formula": "H<SUB>2</SUB>O", "sample": [["Source:", "commercial source"], ["Purification:", "estimated by the compiler"], ["Purity:", "99.9 mass %"]]}], "title": "Refraction, surface tension, and speed of sound: Refractive index (Na D-line)", "expmeth": "Standard Abbe refractometry", "data": [[["0"], ["100"], ["293"], ["1.3333", "0.0005"]], [["0.01"], ["100"], ["293"], ["1.3541", "0.0005"]], [["0.03"], ["100"], ["293"], ["1.3845", "0.0005"]], [["0.05"], ["100"], ["293"], ["1.4066", "0.0005"]], [["0.099"], ["100"], ["293"], ["1.4425", "0.0005"]], [["0.166"], ["100"], ["293"], ["1.4668", "0.0005"]], [["0.244"], ["100"], ["293"], ["1.4853", "0.0005"]], [["0.371"], ["100"], ["293"], ["1.5015", "0.0005"]], [["0.498"], ["100"], ["293"], ["1.5086", "0.0005"]], [["0.752"], ["100"], ["293"], ["1.5184", "0.0005"]], [["1"], ["100"], ["293"], ["1.5251", "0.0005"]]], "solvent": null, "footer": ""}