{"constr": [], "ref": {"title": "Amino-acid-based chiral ionic liquids characterization and application in aqueous biphasic systems", "full": "Carreira, Ana R.F.; Rocha, Samuel N.; Silva, Francisca A. e; Sintra, Tania E.; Passos, Helena; Ventura, Sonia P.M.; Coutinho, Joao A.P. (2021) Fluid Phase Equilib. 542, 113091."}, "phases": ["Liquid"], "title": "Refraction, surface tension, and speed of sound: Refractive index (Na D-line)", "components": [{"sample": [["Source:", "synthesized by the authors"]], "idout": "AAzfRH", "mw": "268.36", "name": "cholinium D-phenylalaninate", "formula": "C<SUB>14</SUB>H<SUB>24</SUB>N<SUB>2</SUB>O<SUB>3</SUB>"}], "dhead": [["Temperature, K", null], ["Pressure, kPa", null], ["Refractive index (Na D-line)", "Liquid"]], "footer": "", "data": [[["293"], ["101.325"], ["1.543", "0"]], [["303"], ["101.325"], ["1.5405", "0"]], [["313"], ["101.325"], ["1.538", "0"]], [["323"], ["101.325"], ["1.5354", "0"]], [["333"], ["101.325"], ["1.5328", "0"]], [["343"], ["101.325"], ["1.5302", "0"]], [["353"], ["101.325"], ["1.5276", "0"]]], "solvent": null, "expmeth": false}