{"phases": ["Liquid mixture 1", "Liquid mixture 2"], "ref": {"full": "Zheng, P.; Zhang, X.; Yin, T.; Shen, W. (2016) J. Chem. Thermodyn. 95, 26-34.", "title": "(Liquid + liquid) phase equilibria of binary mixtures 1-butyl-3-methylimidazolium tetrafluoroborate and tert-butanol or 1,2-butanediol"}, "constr": [], "footer": "", "solvent": null, "data": [[["288.502"], ["85"], ["632.8"], ["1.4376", "0.0004"]], [["290.071"], ["85"], ["632.8"], ["1.4369", "0.0004"]], [["291.226"], ["85"], ["632.8"], ["1.4365", "0.0004"]], [["292.209"], ["85"], ["632.8"], ["1.436", "0.0004"]], [["292.98"], ["85"], ["632.8"], ["1.4356", "0.0004"]], [["293.652"], ["85"], ["632.8"], ["1.4352", "0.0004"]], [["294.195"], ["85"], ["632.8"], ["1.4349", "0.0004"]], [["294.703"], ["85"], ["632.8"], ["1.4347", "0.0004"]], [["295.159"], ["85"], ["632.8"], ["1.4344", "0.0004"]], [["295.583"], ["85"], ["632.8"], ["1.4341", "0.0004"]], [["295.965"], ["85"], ["632.8"], ["1.4338", "0.0004"]], [["296.439"], ["85"], ["632.8"], ["1.4334", "0.0004"]], [["296.841"], ["85"], ["632.8"], ["1.4331", "0.0004"]], [["297.14"], ["85"], ["632.8"], ["1.4329", "0.0004"]], [["297.444"], ["85"], ["632.8"], ["1.4326", "0.0004"]], [["297.651"], ["85"], ["632.8"], ["1.4324", "0.0004"]], [["297.843"], ["85"], ["632.8"], ["1.4322", "0.0004"]], [["297.959"], ["85"], ["632.8"], ["1.4321", "0.0004"]], [["298.057"], ["85"], ["632.8"], ["1.4319", "0.0004"]], [["298.155"], ["85"], ["632.8"], ["1.4318", "0.0004"]], [["298.258"], ["85"], ["632.8"], ["1.4317", "0.0004"]], [["298.333"], ["85"], ["632.8"], ["1.4316", "0.0004"]], [["298.42"], ["85"], ["632.8"], ["1.4315", "0.0004"]], [["298.5"], ["85"], ["632.8"], ["1.4313", "0.0004"]], [["298.578"], ["85"], ["632.8"], ["1.4311", "0.0004"]], [["298.631"], ["85"], ["632.8"], ["1.431", "0.0004"]], [["298.67"], ["85"], ["632.8"], ["1.4309", "0.0004"]], [["298.707"], ["85"], ["632.8"], ["1.4308", "0.0005"]], [["298.727"], ["85"], ["632.8"], ["1.4307", "0.0005"]], [["298.745"], ["85"], ["632.8"], ["1.4305", "0.0005"]], [["298.766"], ["85"], ["632.8"], ["1.4303", "0.0005"]], [["298.785"], ["85"], ["632.8"], ["1.4301", "0.0006"]], [["298.792"], ["85"], ["632.8"], ["1.43", "0.0006"]]], "expmeth": "Standard Abbe refractometry", "title": "Refraction, surface tension, and speed of sound: Refractive index", "components": [{"idout": "AARRxF", "mw": "90.12", "name": "1,2-butanediol", "formula": "C<SUB>4</SUB>H<SUB>10</SUB>O<SUB>2</SUB>", "sample": [["Source:", "commercial source"], ["Initial purification:", "stated by supplier"], ["Initial purity:", "99 mass %"], ["Final purification:", "Karl Fischer titration"], ["Final purity:", "0.0261 water mass %(molecular sieve treatment)"]]}, {"sample": [["Source:", "commercial source"], ["Initial purification:", "stated by supplier"], ["Initial purity:", "99 mass %"], ["Final purification:", "Karl Fischer titration"], ["Final purity:", "0.018 water mass %(dried in a desiccator;dried by vacuum heating)"]], "formula": "C<SUB>8</SUB>H<SUB>15</SUB>BF<SUB>4</SUB>N<SUB>2</SUB>", "name": "1-butyl-3-methylimidazolium tetrafluoroborate", "idout": "AArYBF", "mw": "226.03"}], "dhead": [["Temperature, K", null], ["Pressure, kPa", null], ["Wavelength, A", "Liquid mixture 1"], ["Refractive index", "Liquid mixture 1"]]}