{"expmeth": false, "data": [[["298.15"], ["101.325"], ["1.50591", "0.00024"]]], "solvent": null, "footer": "", "dhead": [["Temperature, K", null], ["Pressure, kPa", null], ["Refractive index (Na D-line)", "Liquid"]], "components": [{"mw": "247.31", "idout": "AAvdhf", "name": "1-ethyl-3-methylpyridinium ethylsulfate", "formula": "C<SUB>10</SUB>H<SUB>17</SUB>NO<SUB>4</SUB>S", "sample": [["Source:", "commercial source"], ["Initial purification:", "stated by supplier"], ["Initial purity:", "99.8 % (basis not specified)"], ["Final purification:", "NMR (proton);Karl Fischer titration"], ["Final purity:", "99 mass %;0.0007 water mass %(dried by vacuum heating)"]]}], "title": "Refraction, surface tension, and speed of sound: Refractive index (Na D-line)", "phases": ["Liquid"], "constr": [], "ref": {"title": "Liquid-Liquid Equilibrium for Ternary Mixtures of Hexane + Aromatic Compounds + [EMpy][ESO4] at T = 298.15 K", "full": "Gonzalez, E. J.; Calvar, N.; Gonzalez, B.; Dominguez, A. (2010) J. Chem. Eng. Data 55(2), 633-638."}}