{"components": [{"idout": "AAwscj", "mw": "254.08", "formula": "C<SUB>10</SUB>H<SUB>19</SUB>BF<SUB>4</SUB>N<SUB>2</SUB>", "name": "1-hexyl-3-methylimidazolium tetrafluoroborate", "sample": [["Source:", "commercial source"], ["Initial purification:", "stated by supplier"], ["Initial purity:", "99 mass %"], ["Final purification:", "not known"], ["Final purity:", "0.01 halide impurity mass %"]]}], "title": "Refraction, surface tension, and speed of sound: Refractive index (Na D-line)", "dhead": [["Temperature, K", null], ["Pressure, kPa", null], ["Refractive index (Na D-line)", "Liquid"]], "data": [[["293.15"], ["101.325"], ["1.4275", "0.0016"]], [["303.15"], ["101.325"], ["1.4255", "0.0016"]], [["313.15"], ["101.325"], ["1.4235", "0.0016"]], [["323.15"], ["101.325"], ["1.4215", "0.0016"]], [["333.15"], ["101.325"], ["1.42", "0.0016"]], [["343.15"], ["101.325"], ["1.417", "0.0016"]]], "solvent": null, "footer": "", "expmeth": "Standard Abbe refractometry", "constr": [], "ref": {"title": "Effect of Temperature, Anion, and Alkyl Chain Length on the Density and Refractive Index of 1-Alkyl-3-methylimidazolium-Based Ionic Liquids", "full": "Montalban, M. G.; Bolivar, C. L.; Banos, F. G. D.; Villora, G. (2015) J. Chem. Eng. Data 60(7), 1986-1996."}, "phases": ["Liquid"]}