{"components": [{"mw": "475.47", "idout": "ABnWNT", "name": "1-methyl-3-octylimidazolium bis(trifluoromethylsulfonyl)imide", "formula": "C<SUB>14</SUB>H<SUB>23</SUB>F<SUB>6</SUB>N<SUB>3</SUB>O<SUB>4</SUB>S<SUB>2</SUB>", "sample": [["Source:", "synthesized by the authors"], ["Purification:", "Karl Fischer titration"], ["Purity:", "0.0021 water mass %"]]}], "title": "Refraction, surface tension, and speed of sound: Refractive index (Na D-line)", "dhead": [["Temperature, K", null], ["Pressure, kPa", null], ["Refractive index (Na D-line)", "Liquid"]], "data": [[["298.15"], ["101.325"], ["1.43331", "0.0012"]]], "solvent": null, "footer": "", "expmeth": "Standard Abbe refractometry", "ref": {"title": "Phase behaviour of 1-methyl-3-octylimidazolium bis[trifluoromethylsulfonyl]imide with thiophene and aliphatic hydrocarbons: The influence of n-alkane chain length", "full": "Alonso, L.; Arce, A.; Francisco, M.; Soto, A. (2008) Fluid Phase Equilib. 263(2), 176-181."}, "constr": [], "phases": ["Liquid"]}