{"expmeth": "Standard Abbe refractometry", "solvent": null, "data": [[["298.15"], ["101.325"], ["1.4791", "0.0007"]]], "footer": "", "dhead": [["Temperature, K", null], ["Pressure, kPa", null], ["Refractive index (Na D-line)", "Liquid"]], "components": [{"name": "1-ethyl-3-methylimidazolium ethyl sulfate", "formula": "C<SUB>8</SUB>H<SUB>16</SUB>N<SUB>2</SUB>O<SUB>4</SUB>S", "mw": "236.29", "idout": "AAtWDT", "sample": [["Source:", "synthesized by the authors"], ["Purification:", "NMR (proton);Karl Fischer titration"], ["Purity:", "99 mass %;0.06 water mass %"]]}], "title": "Refraction, surface tension, and speed of sound: Refractive index (Na D-line)", "phases": ["Liquid"], "constr": [], "ref": {"full": "Gonzalez, E. J.; Calvar, N.; Dominguez, I.; Dominguez, A. (2011) J. Chem. Thermodyn. 43(4), 562-568.", "title": "Extraction of toluene from aliphatic compounds using an ionic liquid as solvent: Influence of the alkane on the (liquid + liquid) equilibrium"}}