{"title": "Refraction, surface tension, and speed of sound: Refractive index (Na D-line)", "components": [{"mw": "78.13", "idout": "AAPByN", "name": "dimethyl sulfoxide", "formula": "C<SUB>2</SUB>H<SUB>6</SUB>OS", "sample": [["Source:", "commercial source"], ["Purification:", "stated by supplier"], ["Purity:", "99 mass %"], ["Purity analysis:", "none used"]]}, {"mw": "206.26", "idout": "AAniqB", "formula": "C<SUB>7</SUB>H<SUB>14</SUB>N<SUB>2</SUB>O<SUB>3</SUB>S", "name": "1-ethyl-3-methylimidazolium methanesulfonate", "sample": [["Source:", "commercial source"], ["Purification:", "stated by supplier"], ["Purity:", "98 mass %"], ["Purity analysis:", "dried in a desiccator"]]}], "dhead": [["MolaLity of 1-ethyl-3-methylimidazolium methanesulfonate, mol/kg", "Liquid"], ["Temperature, K", null], ["Pressure, kPa", null], ["Refractive index (Na D-line)", "Liquid"]], "footer": "", "data": [[["0.046"], ["298.15"], ["101"], ["1.5385", "0.0005"]]], "solvent": "dimethyl sulfoxide", "expmeth": "Standard Abbe refractometry", "ref": {"full": "Roy, M. N.; Roy, M. C.; Choudhury, S.; Roy, P. K.; Dewan, R. (2015) Thermochim. Acta 599, 27-34.", "title": "Conductometric, refractometric and FT-IR spectroscopic study of [EMIm]NO3, [EMIm]CH3SO3, and [EMIm]OTs in N,N-dimethyl formamide, N,N-dimethyl acetamide and dimethyl sulphoxide"}, "constr": [], "phases": ["Liquid"]}