{"phases": ["Liquid"], "constr": [], "ref": {"title": "Characterising a protic ionic liquid library with applied machine learning algorithms", "full": "Brown, S. J.; Yalcin, D.; Pandiancherri, S.; Le, T. C.; Orhan, I.; Hearn, K.; Han, Q.; Drummond, C. J.; Greaves, T. L. (2022) J. Mol. Liq. 367, 120453."}, "expmeth": "Standard Abbe refractometry", "data": [[["294.1"], ["101.325"], ["1.4341", "0.001"]]], "solvent": null, "footer": "", "dhead": [["Temperature, K", null], ["Pressure, kPa", null], ["Refractive index (Na D-line)", "Liquid"]], "components": [{"mw": "91.11", "idout": "AARbsW", "name": "ethylammonium formate", "formula": "C<SUB>3</SUB>H<SUB>9</SUB>NO<SUB>2</SUB>", "sample": [["Source:", "synthesized by the authors"], ["Purification:", "estimated by the compiler;Karl Fischer titration"], ["Purity:", "97 mass %;1.87 water mass %(dried by vacuum heating)"]]}], "title": "Refraction, surface tension, and speed of sound: Refractive index (Na D-line)"}