{"ref": {"title": "Extractions of Alkaloids Codeine and Caffeine with [Bmim][BF4]/Carbohydrate Aqueous Biphasic Systems as a Novel Class of Liquid-Liquid Extraction Systems", "full": "Jamehbozorg, Bahman; Sadeghi, Rahmat (2019) J. Chem. Eng. Data 64(3), 916-925."}, "constr": [], "phases": ["Liquid"], "title": "Refraction, surface tension, and speed of sound: Refractive index (Na D-line)", "components": [{"sample": [["Source:", "synthesized by the authors"], ["Purification:", "NMR (proton)"], ["Purity:", "98 mass %"]], "formula": "C<SUB>8</SUB>H<SUB>15</SUB>BF<SUB>4</SUB>N<SUB>2</SUB>", "name": "1-butyl-3-methylimidazolium tetrafluoroborate", "mw": "226.03", "idout": "AArYBF"}, {"formula": "C<SUB>6</SUB>H<SUB>12</SUB>O<SUB>6</SUB>", "name": "D-glucose", "mw": "180.16", "idout": "AAihiT", "sample": [["Source:", "commercial source"], ["Purification:", "stated by supplier"], ["Purity:", "99 mass %"]]}, {"idout": "AADYJk", "mw": "18.02", "name": "water", "formula": "H<SUB>2</SUB>O", "sample": [["Source:", "commercial source"], ["Purification:", "estimated by the compiler"], ["Purity:", "99.9 mass %"]]}], "dhead": [["Weight fraction of D-glucose", "Liquid"], ["Temperature, K", null], ["Pressure, kPa", null], ["Solvent: Weight fraction of 1-butyl-3-methylimidazolium tetrafluoroborate", "Liquid"], ["Refractive index (Na D-line)", "Liquid"]], "footer": "", "data": [[["0"], ["298.15"], ["84.5"], ["0.02"], ["1.33391", "0.00058"]], [["0.0033"], ["298.15"], ["84.5"], ["0.02"], ["1.33435", "0.00075"]], [["0.0072"], ["298.15"], ["84.5"], ["0.02"], ["1.33491", "0.00081"]], [["0.0155"], ["298.15"], ["84.5"], ["0.02"], ["1.3361", "0.00082"]], [["0.0395"], ["298.15"], ["84.5"], ["0.02"], ["1.33956", "0.00082"]], [["0.0776"], ["298.15"], ["84.5"], ["0.02"], ["1.34516", "0.00083"]], [["0.0944"], ["298.15"], ["84.5"], ["0.02"], ["1.34767", "0.00084"]], [["0.1186"], ["298.15"], ["84.5"], ["0.02"], ["1.35129", "0.00084"]], [["0.1302"], ["298.15"], ["84.5"], ["0.02"], ["1.35316", "0.00086"]], [["0.1448"], ["298.15"], ["84.5"], ["0.02"], ["1.35543", "0.00086"]], [["0.1851"], ["298.15"], ["84.5"], ["0.02"], ["1.36184", "0.00086"]]], "solvent": "1-butyl-3-methylimidazolium tetrafluoroborate + water", "expmeth": "Standard Abbe refractometry"}