{"components": [{"name": "1-propanenitrile-3-butylimidazolium dicyanamide", "formula": "C<SUB>12</SUB>H<SUB>16</SUB>N<SUB>6</SUB>", "idout": "AAuzTV", "mw": "244.30", "sample": [["Source:", "synthesized by the authors"]]}], "title": "Refraction, surface tension, and speed of sound: Refractive index (Na D-line)", "dhead": [["Temperature, K", null], ["Pressure, kPa", null], ["Refractive index (Na D-line)", "Liquid"]], "data": [[["297.8"], ["101.325"], ["1.5197", "0.0022"]], [["302.9"], ["101.325"], ["1.5181", "0.0022"]], [["308"], ["101.325"], ["1.5162", "0.0022"]], [["312.9"], ["101.325"], ["1.5146", "0.0022"]], [["317.9"], ["101.325"], ["1.5126", "0.0022"]], [["322.9"], ["101.325"], ["1.5107", "0.0022"]], [["327.8"], ["101.325"], ["1.5086", "0.0022"]], [["332.9"], ["101.325"], ["1.5062", "0.0022"]], [["338"], ["101.325"], ["1.5042", "0.0022"]]], "solvent": null, "footer": "", "expmeth": "Dipping refractometry (monochromatic)", "ref": {"title": "Experimental investigation and modeling of the density, refractive index, and dynamic viscosity of 1-Propyronitrile-3-Butylimidazolium Dicyanamide", "full": "Ullah, S.; Al-Sehemi, A. G.; Assiri, M. A.; Mukhtar, A.; Ayoub, M.; Bustam, M. A.; Gonfa, G.; Irfan, A.; Imran, M. (2020) J. Mol. Liq. 302, 112470."}, "constr": [], "phases": ["Liquid"]}