{"phases": ["Liquid"], "constr": [], "ref": {"title": "Phase behavior of [Cnmim]Cl/Br (n=2, 4, 6, 8) +MNO3(M=Na, K, Rb, Cs) + H2O systems at 298.15 K", "full": "Li, X.; Li, S.; Zhai, Q.; Jiang, Y.; Hu, M. (2016) J. Mol. Liq. 215, 237-243."}, "expmeth": "Standard Abbe refractometry", "solvent": null, "data": [[["0"], ["0.2792"], ["101"], ["298.15"], ["1.35915", "0.00032"]], [["0.0642"], ["0.2094"], ["101"], ["298.15"], ["1.36636", "0.00032"]], [["0.1367"], ["0.1582"], ["101"], ["298.15"], ["1.37456", "0.00032"]], [["0.2155"], ["0.1151"], ["101"], ["298.15"], ["1.38395", "0.00033"]], [["0.2959"], ["0.0886"], ["101"], ["298.15"], ["1.39524", "0.00033"]], [["0.376"], ["0.0737"], ["101"], ["298.15"], ["1.40787", "0.00033"]], [["0.4592"], ["0.0571"], ["101"], ["298.15"], ["1.42249", "0.00034"]], [["0.5441"], ["0.0425"], ["101"], ["298.15"], ["1.43899", "0.00034"]], [["0.6279"], ["0.0331"], ["101"], ["298.15"], ["1.45799", "0.00034"]], [["0.714"], ["0.0227"], ["101"], ["298.15"], ["1.47795", "0.00035"]], [["0.8008"], ["0.0135"], ["101"], ["298.15"], ["1.50188", "0.00036"]]], "footer": "", "dhead": [["Weight fraction of 1-ethyl-3-methylimidazolium bromide", "Liquid"], ["Weight fraction of potassium nitrate", "Liquid"], ["Pressure, kPa", null], ["Temperature, K", null], ["Refractive index (Na D-line)", "Liquid"]], "components": [{"mw": "18.02", "idout": "AADYJk", "name": "water", "formula": "H<SUB>2</SUB>O", "sample": [["Purification:", "estimated by the compiler"], ["Purity:", "99.9 mass %(unspecified)"]]}, {"sample": [["Source:", "commercial source"], ["Purification:", "stated by supplier"], ["Purity:", "99 mass %"], ["Purity analysis:", "dried by vacuum heating"]], "name": "potassium nitrate", "formula": "KNO<SUB>3</SUB>", "idout": "AATXuS", "mw": "101.10"}, {"sample": [["Source:", "commercial source"], ["Purification:", "stated by supplier"], ["Purity:", "99 mol %"], ["Purity analysis:", "dried by vacuum heating"]], "formula": "C<SUB>6</SUB>H<SUB>11</SUB>BrN<SUB>2</SUB>", "name": "1-ethyl-3-methylimidazolium bromide", "idout": "AAkmTS", "mw": "191.07"}], "title": "Refraction, surface tension, and speed of sound: Refractive index (Na D-line)"}