{"ref": {"full": "Beigi, A. A. M.; Abdouss, M.; Yousefi, M.; Pourmortazavi, S. M.; Vahid, A. (2013) J. Mol. Liq. 177, 361-368.", "title": "Investigation on physical and electrochemical properties of three imidazolium based ionic liquids (1-hexyl-3-methylimidazolium tetrafluoroborate, 1-ethyl-3-methylimidazolium bis(trifluoromethylsulfonyl) imide and 1-butyl-3-methylimidazolium methylsulfate)"}, "constr": [], "phases": ["Liquid"], "title": "Refraction, surface tension, and speed of sound: Refractive index (Na D-line)", "components": [{"idout": "ABXNZH", "mw": "391.30", "formula": "C<SUB>8</SUB>H<SUB>11</SUB>F<SUB>6</SUB>N<SUB>3</SUB>O<SUB>4</SUB>S<SUB>2</SUB>", "name": "1-ethyl-3-methylimidazolium bis((trifluoromethyl)sulfonyl)imide", "sample": [["Source:", "synthesized by the authors"], ["Purification:", "estimated by the compiler;Karl Fischer titration;ion-selective electrode"], ["Purity:", "97 mass %;0.026 water mass %;0.002 halide impurity mass %(unspecified)"]]}], "dhead": [["Temperature, K", null], ["Pressure, kPa", null], ["Refractive index (Na D-line)", "Liquid"]], "footer": "", "data": [[["283"], ["101.325"], ["1.4254", "0.0008"]], [["293"], ["101.325"], ["1.4232", "0.0008"]], [["298.1"], ["101.325"], ["1.422", "0.0008"]], [["303"], ["101.325"], ["1.4206", "0.0008"]], [["313"], ["101.325"], ["1.4179", "0.0008"]], [["323"], ["101.325"], ["1.4153", "0.0008"]], [["333"], ["101.325"], ["1.4127", "0.0008"]], [["343"], ["101.325"], ["1.4101", "0.0008"]], [["353"], ["101.325"], ["1.4072", "0.0008"]], [["363"], ["101.325"], ["1.4045", "0.0008"]], [["368.1"], ["101.325"], ["1.4033", "0.0008"]]], "solvent": null, "expmeth": "Standard Abbe refractometry"}