{"ref": {"full": "Zheng, P.; Zhang, X.; Yin, T.; Shen, W. (2016) J. Chem. Thermodyn. 95, 26-34.", "title": "(Liquid + liquid) phase equilibria of binary mixtures 1-butyl-3-methylimidazolium tetrafluoroborate and tert-butanol or 1,2-butanediol"}, "constr": [], "phases": ["Liquid mixture 1", "Liquid mixture 2"], "dhead": [["Temperature, K", null], ["Pressure, kPa", null], ["Wavelength, A", "Liquid mixture 1"], ["Refractive index", "Liquid mixture 1"]], "title": "Refraction, surface tension, and speed of sound: Refractive index", "components": [{"mw": "74.12", "idout": "AAONJg", "formula": "C<SUB>4</SUB>H<SUB>10</SUB>O", "name": "2-methylpropan-2-ol", "sample": [["Source:", "commercial source"], ["Initial purification:", "stated by supplier"], ["Initial purity:", "99 mass %"], ["Final purification:", "Karl Fischer titration"], ["Final purity:", "0.0128 water mass %(molecular sieve treatment)"]]}, {"formula": "C<SUB>8</SUB>H<SUB>15</SUB>BF<SUB>4</SUB>N<SUB>2</SUB>", "name": "1-butyl-3-methylimidazolium tetrafluoroborate", "idout": "AArYBF", "mw": "226.03", "sample": [["Source:", "commercial source"], ["Initial purification:", "stated by supplier"], ["Initial purity:", "99 mass %"], ["Final purification:", "Karl Fischer titration"], ["Final purity:", "0.018 water mass %(dried in a desiccator;dried by vacuum heating)"]]}], "expmeth": "Standard Abbe refractometry", "footer": "", "data": [[["319.697"], ["114"], ["632.8"], ["1.3749", "0.0004"]], [["320.859"], ["114"], ["632.8"], ["1.3744", "0.0004"]], [["321.986"], ["114"], ["632.8"], ["1.374", "0.0004"]], [["323.142"], ["114"], ["632.8"], ["1.3735", "0.0004"]], [["323.985"], ["114"], ["632.8"], ["1.3732", "0.0004"]], [["324.831"], ["114"], ["632.8"], ["1.3731", "0.0004"]], [["325.652"], ["114"], ["632.8"], ["1.3728", "0.0004"]], [["326.272"], ["114"], ["632.8"], ["1.3727", "0.0004"]], [["326.379"], ["114"], ["632.8"], ["1.3728", "0.0004"]], [["326.847"], ["114"], ["632.8"], ["1.3727", "0.0004"]], [["327.158"], ["114"], ["632.8"], ["1.3727", "0.0004"]], [["327.468"], ["114"], ["632.8"], ["1.3727", "0.0004"]], [["327.904"], ["114"], ["632.8"], ["1.3727", "0.0004"]], [["328.221"], ["114"], ["632.8"], ["1.3727", "0.0004"]], [["328.499"], ["114"], ["632.8"], ["1.3728", "0.0004"]], [["328.754"], ["114"], ["632.8"], ["1.3728", "0.0004"]], [["328.989"], ["114"], ["632.8"], ["1.3728", "0.0004"]], [["329.222"], ["114"], ["632.8"], ["1.3729", "0.0004"]], [["329.424"], ["114"], ["632.8"], ["1.373", "0.0004"]], [["329.558"], ["114"], ["632.8"], ["1.3731", "0.0004"]], [["329.672"], ["114"], ["632.8"], ["1.3733", "0.0004"]], [["329.798"], ["114"], ["632.8"], ["1.3734", "0.0004"]], [["329.916"], ["114"], ["632.8"], ["1.3737", "0.0004"]], [["330.011"], ["114"], ["632.8"], ["1.3737", "0.0004"]], [["330.115"], ["114"], ["632.8"], ["1.3739", "0.0004"]], [["330.186"], ["114"], ["632.8"], ["1.3741", "0.0004"]], [["330.25"], ["114"], ["632.8"], ["1.3744", "0.0004"]], [["330.286"], ["114"], ["632.8"], ["1.3744", "0.0004"]], [["330.338"], ["114"], ["632.8"], ["1.3745", "0.0004"]], [["330.382"], ["114"], ["632.8"], ["1.3747", "0.0004"]], [["330.413"], ["114"], ["632.8"], ["1.3748", "0.0004"]], [["330.428"], ["114"], ["632.8"], ["1.3749", "0.0005"]], [["330.444"], ["114"], ["632.8"], ["1.375", "0.0005"]], [["330.464"], ["114"], ["632.8"], ["1.3751", "0.0005"]], [["330.476"], ["114"], ["632.8"], ["1.3752", "0.0006"]], [["330.485"], ["114"], ["632.8"], ["1.3753", "0.0006"]], [["330.493"], ["114"], ["632.8"], ["1.3754", "0.0006"]], [["330.502"], ["114"], ["632.8"], ["1.3756", "0.0006"]], [["330.51"], ["114"], ["632.8"], ["1.3757", "0.0007"]], [["330.514"], ["114"], ["632.8"], ["1.3757", "0.0006"]], [["330.519"], ["114"], ["632.8"], ["1.3758", "0.0007"]], [["330.525"], ["114"], ["632.8"], ["1.3759", "0.0007"]], [["330.53"], ["114"], ["632.8"], ["1.3759", "0.0007"]], [["330.537"], ["114"], ["632.8"], ["1.3761", "0.0008"]], [["330.541"], ["114"], ["632.8"], ["1.3764", "0.0009"]]], "solvent": null}