{"ref": {"full": "Zhang, D.; Li, B.; Hong, M.; Kong, Y.-X.; Tong, J.; Xu, W.-G. (2020) J. Mol. Liq. 304, 112718.", "title": "Synthesis and characterization of physicochemical properties of new ether-functionalized amino acid ionic liquids"}, "constr": [], "phases": ["Liquid"], "dhead": [["Temperature, K", null], ["Pressure, kPa", null], ["Refractive index (Na D-line)", "Liquid"]], "components": [{"mw": "259.31", "idout": "AAxtnL", "name": "1-(2-methoxyethyl)-3-methylimidazolium threonine", "formula": "C<SUB>11</SUB>H<SUB>21</SUB>N<SUB>3</SUB>O<SUB>4</SUB>", "sample": [["Source:", "synthesized by the authors"], ["Purification:", "estimated by the compiler"], ["Purity:", "98 mass %"]]}], "title": "Refraction, surface tension, and speed of sound: Refractive index (Na D-line)", "expmeth": "Standard Abbe refractometry", "data": [[["288.15"], ["100"], ["1.5097", "0.006"]], [["293.15"], ["100"], ["1.5086", "0.006"]], [["298.15"], ["100"], ["1.5072", "0.006"]], [["303.15"], ["100"], ["1.5057", "0.006"]], [["308.15"], ["100"], ["1.5041", "0.006"]], [["313.15"], ["100"], ["1.5024", "0.006"]], [["318.15"], ["100"], ["1.5007", "0.006"]], [["323.15"], ["100"], ["1.499", "0.006"]], [["328.15"], ["100"], ["1.497", "0.006"]]], "solvent": null, "footer": ""}