{"title": "Refraction, surface tension, and speed of sound: Refractive index (Na D-line)", "components": [{"formula": "C<SUB>2</SUB>H<SUB>3</SUB>N", "name": "acetonitrile", "mw": "41.05", "idout": "AAHueB", "sample": [["Source:", "commercial source"], ["Purification:", "stated by supplier"], ["Purity:", "99.9 mass %"]]}, {"formula": "C<SUB>10</SUB>H<SUB>20</SUB>F<SUB>3</SUB>NO<SUB>3</SUB>S", "name": "1-butyl-1-methylpyrrolidinium trifluoromethanesulfonate", "idout": "ABEBwg", "mw": "291.33", "sample": [["Source:", "commercial source"], ["Initial purification:", "stated by supplier"], ["Initial purity:", "98 mass %"], ["Final purification:", "Karl Fischer titration"], ["Final purity:", "0.01 water mass %(dried by vacuum heating)"]]}], "dhead": [["Temperature, K", null], ["MolaLity of 1-butyl-1-methylpyrrolidinium trifluoromethanesulfonate, mol/kg", "Liquid"], ["Pressure, kPa", null], ["Refractive index (Na D-line)", "Liquid"]], "footer": "", "data": [[["288.15"], ["0"], ["101"], ["1.3459", "0.0004"]], [["288.15"], ["0.02029"], ["101"], ["1.3462", "0.0004"]], [["288.15"], ["0.02813"], ["101"], ["1.3463", "0.0004"]], [["288.15"], ["0.03922"], ["101"], ["1.3466", "0.0004"]], [["288.15"], ["0.04982"], ["101"], ["1.3469", "0.0004"]], [["288.15"], ["0.05957"], ["101"], ["1.3471", "0.0004"]], [["288.15"], ["0.06919"], ["101"], ["1.3473", "0.0004"]], [["288.15"], ["0.07996"], ["101"], ["1.3475", "0.0004"]], [["288.15"], ["0.09008"], ["101"], ["1.3479", "0.0004"]], [["288.15"], ["0.10106"], ["101"], ["1.3482", "0.0004"]], [["288.15"], ["0.23711"], ["101"], ["1.351", "0.0004"]], [["288.15"], ["0.40597"], ["101"], ["1.3538", "0.0004"]], [["288.15"], ["0.60891"], ["101"], ["1.3571", "0.0004"]], [["293.15"], ["0"], ["101"], ["1.3439", "0.0004"]], [["293.15"], ["0.02029"], ["101"], ["1.3441", "0.0004"]], [["293.15"], ["0.02813"], ["101"], ["1.3442", "0.0004"]], [["293.15"], ["0.03922"], ["101"], ["1.3443", "0.0004"]], [["293.15"], ["0.04982"], ["101"], ["1.3445", "0.0004"]], [["293.15"], ["0.05957"], ["101"], ["1.3449", "0.0004"]], [["293.15"], ["0.06919"], ["101"], ["1.345", "0.0004"]], [["293.15"], ["0.07996"], ["101"], ["1.3451", "0.0004"]], [["293.15"], ["0.09008"], ["101"], ["1.3454", "0.0004"]], [["293.15"], ["0.10106"], ["101"], ["1.3457", "0.0004"]], [["293.15"], ["0.23711"], ["101"], ["1.3488", "0.0004"]], [["293.15"], ["0.40597"], ["101"], ["1.3515", "0.0004"]], [["293.15"], ["0.60891"], ["101"], ["1.3549", "0.0004"]], [["298.15"], ["0"], ["101"], ["1.3419", "0.0004"]], [["298.15"], ["0.02029"], ["101"], ["1.3423", "0.0004"]], [["298.15"], ["0.02813"], ["101"], ["1.3424", "0.0004"]], [["298.15"], ["0.03922"], ["101"], ["1.3426", "0.0004"]], [["298.15"], ["0.04982"], ["101"], ["1.3428", "0.0004"]], [["298.15"], ["0.05957"], ["101"], ["1.3429", "0.0004"]], [["298.15"], ["0.06919"], ["101"], ["1.3431", "0.0004"]], [["298.15"], ["0.07996"], ["101"], ["1.3434", "0.0004"]], [["298.15"], ["0.09008"], ["101"], ["1.3436", "0.0004"]], [["298.15"], ["0.10106"], ["101"], ["1.3438", "0.0004"]], [["298.15"], ["0.23711"], ["101"], ["1.3465", "0.0004"]], [["298.15"], ["0.40597"], ["101"], ["1.3494", "0.0004"]], [["298.15"], ["0.60891"], ["101"], ["1.3527", "0.0004"]]], "solvent": "acetonitrile", "expmeth": "Standard Abbe refractometry", "constr": [], "ref": {"title": "The study of solute solvent interactions in 1-butyl-1-methylpyrrolidinium trifluoromethanesulfonate + acetonitrile from solvent activity, density, speed of sound, viscosity, electrical conductivity and refractive index measurements", "full": "Majdan-Cegincara, R.; Zafarani-Moattar, M. T.; Shekaari, H. (2015) J. Mol. Liq. 203, 198-203."}, "phases": ["Liquid"]}