{"constr": [], "ref": {"full": "Shekaari, H.; Zafarani-Moattar, M. T.; Niknam, M. (2016) J. Chem. Thermodyn. 97, 100-112.", "title": "Thermodynamic behavior of thiophene with octane, 1-hexyl-3-methylimidazolium bromide, or 1-octyl-3-methylimidazolium bromide in dilute region at T = (288.15 to 303.15) K"}, "phases": ["Liquid"], "title": "Refraction, surface tension, and speed of sound: Refractive index (Na D-line)", "components": [{"mw": "84.14", "idout": "AAQJSl", "formula": "C<SUB>4</SUB>H<SUB>4</SUB>S", "name": "thiophene", "sample": [["Source:", "commercial source"], ["Purification:", "stated by supplier"], ["Purity:", "99.5 mass %"]]}, {"sample": [["Source:", "synthesized by the authors"], ["Purification:", "Karl Fischer titration;NMR (proton)"], ["Purity:", "0.072 water mass %;97 mass %(dried by vacuum heating;solvent extraction)"]], "name": "1-methyl-3-octylimidazolium bromide", "formula": "C<SUB>12</SUB>H<SUB>23</SUB>BrN<SUB>2</SUB>", "idout": "ABAwEw", "mw": "275.23"}], "dhead": [["Temperature, K", null], ["MolaLity of thiophene, mol/kg", "Liquid"], ["Pressure, kPa", null], ["Refractive index (Na D-line)", "Liquid"]], "footer": "", "data": [[["288.15"], ["0"], ["86.5"], ["1.525", "0.0012"]], [["288.15"], ["0.0087"], ["86.5"], ["1.5248", "0.0012"]], [["288.15"], ["0.022"], ["86.5"], ["1.5245", "0.0012"]], [["288.15"], ["0.032"], ["86.5"], ["1.5242", "0.0012"]], [["288.15"], ["0.0435"], ["86.5"], ["1.524", "0.0012"]], [["288.15"], ["0.0556"], ["86.5"], ["1.5238", "0.0012"]], [["288.15"], ["0.0663"], ["86.5"], ["1.5235", "0.0012"]], [["288.15"], ["0.0821"], ["86.5"], ["1.5232", "0.0012"]], [["288.15"], ["0.0923"], ["86.5"], ["1.5229", "0.0012"]], [["288.15"], ["0.107"], ["86.5"], ["1.5226", "0.0012"]], [["288.15"], ["0.1464"], ["86.5"], ["1.5221", "0.0012"]], [["288.15"], ["0.1765"], ["86.5"], ["1.5216", "0.0012"]], [["293.15"], ["0"], ["86.5"], ["1.5236", "0.0012"]], [["293.15"], ["0.0087"], ["86.5"], ["1.5233", "0.0012"]], [["293.15"], ["0.022"], ["86.5"], ["1.5231", "0.0012"]], [["293.15"], ["0.032"], ["86.5"], ["1.5228", "0.0012"]], [["293.15"], ["0.0435"], ["86.5"], ["1.5226", "0.0012"]], [["293.15"], ["0.0556"], ["86.5"], ["1.5223", "0.0012"]], [["293.15"], ["0.0663"], ["86.5"], ["1.522", "0.0012"]], [["293.15"], ["0.0821"], ["86.5"], ["1.5217", "0.0012"]], [["293.15"], ["0.0923"], ["86.5"], ["1.5214", "0.0012"]], [["293.15"], ["0.107"], ["86.5"], ["1.5211", "0.0012"]], [["293.15"], ["0.1464"], ["86.5"], ["1.5205", "0.0012"]], [["293.15"], ["0.1765"], ["86.5"], ["1.52", "0.0012"]], [["298.15"], ["0"], ["86.5"], ["1.5221", "0.0012"]], [["298.15"], ["0.0087"], ["86.5"], ["1.5219", "0.0012"]], [["298.15"], ["0.022"], ["86.5"], ["1.5216", "0.0012"]], [["298.15"], ["0.032"], ["86.5"], ["1.5213", "0.0012"]], [["298.15"], ["0.0435"], ["86.5"], ["1.521", "0.0012"]], [["298.15"], ["0.0556"], ["86.5"], ["1.5207", "0.0012"]], [["298.15"], ["0.0663"], ["86.5"], ["1.5203", "0.0012"]], [["298.15"], ["0.0821"], ["86.5"], ["1.52", "0.0012"]], [["298.15"], ["0.0923"], ["86.5"], ["1.5197", "0.0012"]], [["298.15"], ["0.107"], ["86.5"], ["1.5193", "0.0012"]], [["298.15"], ["0.1464"], ["86.5"], ["1.5187", "0.0012"]], [["298.15"], ["0.1765"], ["86.5"], ["1.5181", "0.0012"]], [["303.15"], ["0"], ["86.5"], ["1.5206", "0.0012"]], [["303.15"], ["0.0087"], ["86.5"], ["1.5205", "0.0012"]], [["303.15"], ["0.022"], ["86.5"], ["1.5202", "0.0012"]], [["303.15"], ["0.032"], ["86.5"], ["1.5199", "0.0012"]], [["303.15"], ["0.0435"], ["86.5"], ["1.5196", "0.0012"]], [["303.15"], ["0.0556"], ["86.5"], ["1.5192", "0.0012"]], [["303.15"], ["0.0663"], ["86.5"], ["1.5189", "0.0012"]], [["303.15"], ["0.0821"], ["86.5"], ["1.5185", "0.0012"]], [["303.15"], ["0.0923"], ["86.5"], ["1.5182", "0.0012"]], [["303.15"], ["0.107"], ["86.5"], ["1.5179", "0.0012"]], [["303.15"], ["0.1464"], ["86.5"], ["1.5171", "0.0012"]], [["303.15"], ["0.1765"], ["86.5"], ["1.5166", "0.0012"]]], "solvent": "1-methyl-3-octylimidazolium bromide", "expmeth": "Standard Abbe refractometry"}