{"ref": {"title": "Refraction Index and Molar Refraction in Ionic Liquid/PEG200 Solutions", "full": "Branco, A. S. H.; Calado, M. S.; Fareleira, J. M. N. A.; Visak, Z. P.; Lopes, J. N. C. (2015) J. Solution Chem. 44, 431-439."}, "constr": [], "phases": ["Liquid"], "components": [{"sample": [["Source:", "commercial source"], ["Initial purification:", "stated by supplier"], ["Initial purity:", "99 mass %"], ["Final purification:", "Karl Fischer titration"], ["Final purity:", "0.0091 water mass %(dried in a desiccator;dried by vacuum heating)"]], "idout": "ABsrrg", "mw": "503.52", "formula": "C<SUB>16</SUB>H<SUB>27</SUB>F<SUB>6</SUB>N<SUB>3</SUB>O<SUB>4</SUB>S<SUB>2</SUB>", "name": "1-decyl-3-methylimidazolium bis(trifluoromethylsulfonyl)amide"}], "title": "Refraction, surface tension, and speed of sound: Refractive index (Na D-line)", "dhead": [["Temperature, K", null], ["Pressure, kPa", null], ["Refractive index (Na D-line)", "Liquid"]], "data": [[["298.15"], ["101.325"], ["1.43662", "0.0014"]]], "solvent": null, "footer": "", "expmeth": "Standard Abbe refractometry"}