{"expmeth": "Standard Abbe refractometry", "data": [[["298.15"], ["101.325"], ["1.48125", "0.00037"]]], "solvent": null, "footer": "", "dhead": [["Temperature, K", null], ["Pressure, kPa", null], ["Refractive index (Na D-line)", "Liquid"]], "components": [{"name": "1-ethyl-3-methylimidazolium methyl sulfate", "formula": "C<SUB>7</SUB>H<SUB>14</SUB>N<SUB>2</SUB>O<SUB>4</SUB>S", "idout": "AAqmVN", "mw": "222.26", "sample": [["Source:", "commercial source"], ["Initial purification:", "stated by supplier"], ["Initial purity:", "99 mass %"], ["Final purification:", "Karl Fischer titration"], ["Final purity:", "0.0501 water mass %(dried by vacuum heating)"]]}], "title": "Refraction, surface tension, and speed of sound: Refractive index (Na D-line)", "phases": ["Liquid"], "constr": [], "ref": {"title": "Quaternary (liquid + liquid) equilibrium data for the extraction of toluene from alkanes using the ionic liquid [EMim][MSO4]", "full": "Corderi, S.; Calvar, N.; Gomez, E.; Dominguez, A. (2014) J. Chem. Thermodyn. 76, 79-86."}}