{"constr": [], "ref": {"title": "Density and refractive index in mixtures of ionic liquids and organic solvents: Correlations and predictions", "full": "Iglesias-Otero, M. A.; Troncoso, J.; Carballo, E.; Romani, L. (2008) J. Chem. Thermodyn. 40(6), 949-956."}, "phases": ["Liquid"], "dhead": [["Temperature, K", null], ["Pressure, kPa", null], ["Refractive index (Na D-line)", "Liquid"]], "components": [{"name": "1-butyl-3-methylimidazolium methyl sulfate", "formula": "C<SUB>9</SUB>H<SUB>18</SUB>N<SUB>2</SUB>O<SUB>4</SUB>S", "idout": "AAwHNg", "mw": "250.31", "sample": [["Source:", "commercial source"], ["Purification:", "stated by supplier"], ["Purity:", "99 % (basis not specified)"], ["Purity analysis:", "dried by vacuum heating"]]}], "title": "Refraction, surface tension, and speed of sound: Refractive index (Na D-line)", "expmeth": "Standard Abbe refractometry", "solvent": null, "data": [[["298.15"], ["101.325"], ["1.4794", "0.0005"]]], "footer": ""}