{"ref": {"full": "Jamehbozorg, Bahman; Sadeghi, Rahmat (2019) J. Chem. Eng. Data 64(3), 916-925.", "title": "Extractions of Alkaloids Codeine and Caffeine with [Bmim][BF4]/Carbohydrate Aqueous Biphasic Systems as a Novel Class of Liquid-Liquid Extraction Systems"}, "constr": [], "phases": ["Liquid"], "title": "Refraction, surface tension, and speed of sound: Refractive index (Na D-line)", "components": [{"mw": "226.03", "idout": "AArYBF", "name": "1-butyl-3-methylimidazolium tetrafluoroborate", "formula": "C<SUB>8</SUB>H<SUB>15</SUB>BF<SUB>4</SUB>N<SUB>2</SUB>", "sample": [["Source:", "synthesized by the authors"], ["Purification:", "NMR (proton)"], ["Purity:", "98 mass %"]]}, {"sample": [["Source:", "commercial source"], ["Purification:", "stated by supplier"], ["Purity:", "98 mass %"]], "name": "D-sucrose", "formula": "C<SUB>12</SUB>H<SUB>22</SUB>O<SUB>11</SUB>", "mw": "342.30", "idout": "ABNqYl"}, {"idout": "AADYJk", "mw": "18.02", "name": "water", "formula": "H<SUB>2</SUB>O", "sample": [["Source:", "commercial source"], ["Purification:", "estimated by the compiler"], ["Purity:", "99.9 mass %"]]}], "dhead": [["Weight fraction of D-sucrose", "Liquid"], ["Temperature, K", null], ["Pressure, kPa", null], ["Solvent: Weight fraction of 1-butyl-3-methylimidazolium tetrafluoroborate", "Liquid"], ["Refractive index (Na D-line)", "Liquid"]], "footer": "", "solvent": "1-butyl-3-methylimidazolium tetrafluoroborate + water", "data": [[["0"], ["298.15"], ["84.5"], ["0.02"], ["1.33393", "0.00061"]], [["0.0031"], ["298.15"], ["84.5"], ["0.02"], ["1.33436", "0.00076"]], [["0.0077"], ["298.15"], ["84.5"], ["0.02"], ["1.33504", "0.00084"]], [["0.0167"], ["298.15"], ["84.5"], ["0.02"], ["1.33632", "0.00084"]], [["0.0393"], ["298.15"], ["84.5"], ["0.02"], ["1.33957", "0.00085"]], [["0.0807"], ["298.15"], ["84.5"], ["0.02"], ["1.34573", "0.00086"]], [["0.1043"], ["298.15"], ["84.5"], ["0.02"], ["1.34933", "0.00086"]], [["0.1189"], ["298.15"], ["84.5"], ["0.02"], ["1.35159", "0.00088"]], [["0.1484"], ["298.15"], ["84.5"], ["0.02"], ["1.35624", "0.00083"]], [["0.1681"], ["298.15"], ["84.5"], ["0.02"], ["1.35844", "0.00089"]], [["0.1837"], ["298.15"], ["84.5"], ["0.02"], ["1.362", "0.0011"]]], "expmeth": "Standard Abbe refractometry"}