{"phases": ["Liquid"], "constr": [], "ref": {"title": "Non-ideal behaviour of a room temperature ionic liquid in an alkoxyethanol or poly ethers at T = (298.15 to 318.15) K", "full": "Kumar, A.; Singh, T.; Gardas, R. L.; Coutinho, J. A. P. (2008) J. Chem. Thermodyn. 40(1), 32-39."}, "expmeth": "Standard Abbe refractometry", "solvent": null, "data": [[["0"], ["101"], ["298.15"], ["1.4004", "0.0013"]], [["0.0037"], ["101"], ["298.15"], ["1.4006", "0.0013"]], [["0.0078"], ["101"], ["298.15"], ["1.401", "0.0013"]], [["0.012"], ["101"], ["298.15"], ["1.4013", "0.0013"]], [["0.0354"], ["101"], ["298.15"], ["1.403", "0.0013"]], [["0.0801"], ["101"], ["298.15"], ["1.405", "0.0013"]], [["0.1468"], ["101"], ["298.15"], ["1.4065", "0.0013"]], [["0.2542"], ["101"], ["298.15"], ["1.4078", "0.0013"]], [["0.396"], ["101"], ["298.15"], ["1.4083", "0.0013"]], [["0.6104"], ["101"], ["298.15"], ["1.4086", "0.0013"]], [["0.8127"], ["101"], ["298.15"], ["1.4086", "0.0013"]], [["0.8961"], ["101"], ["298.15"], ["1.4089", "0.0013"]], [["0.9345"], ["101"], ["298.15"], ["1.409", "0.0013"]], [["0.9749"], ["101"], ["298.15"], ["1.409", "0.0013"]], [["1"], ["101"], ["298.15"], ["1.4089", "0.0013"]]], "footer": "", "dhead": [["Mole fraction of 1-butyl-3-methylimidazolium hexafluorophosphate", "Liquid"], ["Pressure, kPa", null], ["Temperature, K", null], ["Refractive index (Na D-line)", "Liquid"]], "components": [{"mw": "76.09", "idout": "AAOgvx", "name": "2-methoxyethan-1-ol", "formula": "C<SUB>3</SUB>H<SUB>8</SUB>O<SUB>2</SUB>", "sample": [["Source:", "commercial source"], ["Purification:", "stated by supplier"], ["Purity:", "99.5 mol %"], ["Purity analysis:", "none used"]]}, {"sample": [["Source:", "commercial source"], ["Initial purification:", "stated by supplier"], ["Initial purity:", "98 mol %"], ["Final purification:", "Karl Fischer titration"], ["Final purity:", "0.01 water mass %(de-gassed by evacuation;dried by vacuum heating)"]], "mw": "284.19", "idout": "ABChJv", "formula": "C<SUB>8</SUB>H<SUB>15</SUB>F<SUB>6</SUB>N<SUB>2</SUB>P", "name": "1-butyl-3-methylimidazolium hexafluorophosphate"}], "title": "Refraction, surface tension, and speed of sound: Refractive index (Na D-line)"}