{"components": [{"sample": [["Source:", "synthesized by the authors"], ["Purification:", "estimated by the compiler;Karl Fischer titration"], ["Purity:", "98 mass %;0.001 water mass %(dried by vacuum heating)"]], "name": "N-isopropyl-N,N-dimethylhexan-1-aminium bis((trifluoromethyl)sulfonyl)amide", "formula": "C<SUB>13</SUB>H<SUB>26</SUB>F<SUB>6</SUB>N<SUB>2</SUB>O<SUB>4</SUB>S<SUB>2</SUB>", "mw": "452.47", "idout": "ABjAeV"}], "title": "Refraction, surface tension, and speed of sound: Refractive index (Na D-line)", "dhead": [["Temperature, K", null], ["Pressure, kPa", null], ["Refractive index (Na D-line)", "Liquid"]], "solvent": null, "data": [[["298.1"], ["101.325"], ["1.422", "0.002"]]], "footer": "", "expmeth": "Standard Abbe refractometry", "ref": {"title": "Physical Properties of Ionic Liquids Consisting of the 1-Butyl-3-Methylimidazolium Cation with Various Anions and the Bis(trifluoromethylsulfonyl)imide Anion with Various Cations", "full": "Jin, H.; O Hare, B.; Dong, J.; Arzhantsev, S.; Baker, G. A.; Wishart, J. F.; Benesi, A. J.; Maroncelli, M. (2008) J. Phys. Chem. B 112, 81-92."}, "constr": [], "phases": ["Liquid"]}