{"constr": [], "ref": {"title": "Ordering and Nonideality of Air-Ionic Liquid Interfaces in Surface Second Harmonic Generation", "full": "Costa, R.; Pereira, C. M.; Silva, A. F.; Brevet, P.-F.; Benichou, E. (2020) J. Phys. Chem. B 124(19), 3954-3961."}, "phases": ["Liquid"], "title": "Refraction, surface tension, and speed of sound: Refractive index", "components": [{"idout": "ABsrrg", "mw": "503.52", "name": "1-decyl-3-methylimidazolium bis(trifluoromethylsulfonyl)amide", "formula": "C<SUB>16</SUB>H<SUB>27</SUB>F<SUB>6</SUB>N<SUB>3</SUB>O<SUB>4</SUB>S<SUB>2</SUB>", "sample": [["Source:", "commercial source"], ["Purification:", "stated by supplier"], ["Purity:", "99.5 % (basis not specified)"]]}], "dhead": [["Temperature, K", null], ["Pressure, kPa", null], ["Wavelength, A", "Liquid"], ["Refractive index", "Liquid"]], "footer": "", "solvent": null, "data": [[["293"], ["101300"], ["400"], ["1.45132", "0.00068"]]], "expmeth": "Standard Abbe refractometry"}