{"constr": [], "ref": {"full": "Chen, Y.; Zhao, D.; Bai, Y.; Duan, Y.; Liu, C.; Gu, J.; Wang, X.; Sun, X.; Li, Y.; Zhang, L. (2022) J. Mol. Liq. 348, 118031.", "title": "Tuning refractive index of deep eutectic solvents"}, "phases": ["Liquid"], "components": [{"sample": [["Source:", "commercial source"], ["Purification:", "stated by supplier"], ["Purity:", "99.9 % (basis not specified)"]], "name": "tetraethylammonium chloride", "formula": "C<SUB>8</SUB>H<SUB>20</SUB>ClN", "mw": "165.71", "idout": "AAftPF"}, {"sample": [["Purity analysis:", "unspecified"]], "formula": "CH<SUB>2</SUB>O<SUB>2</SUB>", "name": "formic acid", "idout": "AAIsyZ", "mw": "46.02"}], "title": "Refraction, surface tension, and speed of sound: Refractive index (Na D-line)", "dhead": [["Mole fraction of tetraethylammonium chloride", "Liquid"], ["Temperature, K", null], ["Pressure, kPa", null], ["Refractive index (Na D-line)", "Liquid"]], "solvent": null, "data": [[["0.333"], ["298.15"], ["100"], ["1.451", "0.0008"]], [["0.333"], ["308.15"], ["100"], ["1.4482", "0.0008"]], [["0.333"], ["318.15"], ["100"], ["1.4458", "0.0008"]], [["0.333"], ["328.15"], ["100"], ["1.4426", "0.0008"]]], "footer": "", "expmeth": "Standard Abbe refractometry"}