{"constr": [], "ref": {"full": "Nazet, A.; Sokolov, S.; Sonnleitner, T.; Friesen, S.; Buchner, R. (2017) J. Chem. Eng. Data 62(9), 2549-2561.", "title": "Densities, Refractive Indices, Viscosities, and Conductivities of Non-Imidazolium Ionic Liquids [Et3S][TFSI], [Et2MeS][TFSI], [BuPy][TFSI], [N8881][TFA], and [P14][DCA]"}, "phases": ["Liquid"], "components": [{"sample": [["Source:", "commercial source"], ["Initial purification:", "stated by supplier"], ["Initial purity:", "98 % (basis not specified)"], ["Final purification:", "Karl Fischer titration"], ["Final purity:", "0.0200 water mass %(dried by vacuum heating)"]], "name": "1-butyl-1-methylpyrrolidinium dicyanamide", "formula": "C<SUB>11</SUB>H<SUB>20</SUB>N<SUB>4</SUB>", "mw": "208.31", "idout": "AAoDPb"}], "title": "Refraction, surface tension, and speed of sound: Refractive index (Na D-line)", "dhead": [["Temperature, K", null], ["Pressure, kPa", null], ["Refractive index (Na D-line)", "Liquid"]], "solvent": null, "data": [[["288.15"], ["101.325"], ["1.4862", "0.003"]], [["293.15"], ["101.325"], ["1.4853", "0.003"]], [["298.15"], ["101.325"], ["1.4847", "0.003"]], [["303.15"], ["101.325"], ["1.4842", "0.003"]], [["308.15"], ["101.325"], ["1.4836", "0.003"]], [["313.15"], ["101.325"], ["1.4832", "0.003"]], [["318.15"], ["101.325"], ["1.4826", "0.003"]], [["323.15"], ["101.325"], ["1.4818", "0.003"]], [["328.15"], ["101.325"], ["1.481", "0.003"]], [["333.15"], ["101.325"], ["1.48", "0.003"]], [["338.15"], ["101.325"], ["1.479", "0.003"]], [["343.15"], ["101.325"], ["1.4779", "0.003"]]], "footer": "", "expmeth": "Standard Abbe refractometry"}