{"title": "Refraction, surface tension, and speed of sound: Refractive index", "components": [{"formula": "C<SUB>3</SUB>H<SUB>8</SUB>O", "name": "propan-2-ol", "idout": "AALcwx", "mw": "60.10", "sample": [["Source:", "commercial source"], ["Initial purification:", "stated by supplier"], ["Initial purity:", "99.5 mass %"], ["Final purification:", "Karl Fischer titration"], ["Final purity:", "0.0064 water mass %(molecular sieve treatment)"]]}, {"formula": "C<SUB>12</SUB>H<SUB>23</SUB>F<SUB>6</SUB>N<SUB>2</SUB>P", "name": "1-octyl-3-methylimidazolium hexafluorophosphate", "mw": "340.29", "idout": "ABNWoR", "sample": [["Source:", "commercial source"], ["Initial purification:", "stated by supplier"], ["Initial purity:", "99 mass %"], ["Final purification:", "Karl Fischer titration"], ["Final purity:", "0.0164 water mass %(dried in a desiccator;dried by vacuum heating)"]]}], "dhead": [["Mole fraction of 1-octyl-3-methylimidazolium hexafluorophosphate", "Liquid"], ["Temperature, K", null], ["Pressure, kPa", null], ["Wavelength, A", "Liquid"], ["Refractive index", "Liquid"]], "footer": "", "data": [[["0"], ["298.206"], ["94"], ["632.8"], ["1.3736", "0.0002"]], [["0"], ["300.173"], ["94"], ["632.8"], ["1.3728", "0.0002"]], [["0"], ["302.197"], ["94"], ["632.8"], ["1.3719", "0.0002"]], [["0"], ["304.243"], ["94"], ["632.8"], ["1.371", "0.0002"]], [["0"], ["306.217"], ["94"], ["632.8"], ["1.3701", "0.0002"]], [["0"], ["308.223"], ["94"], ["632.8"], ["1.3693", "0.0002"]], [["0"], ["310.242"], ["94"], ["632.8"], ["1.3684", "0.0002"]], [["0"], ["312.201"], ["94"], ["632.8"], ["1.3675", "0.0002"]], [["0.1"], ["310.49"], ["94"], ["632.8"], ["1.3838", "0.0003"]], [["0.1"], ["311.504"], ["94"], ["632.8"], ["1.3834", "0.0003"]], [["0.1"], ["312.491"], ["94"], ["632.8"], ["1.383", "0.0003"]], [["0.1"], ["313.521"], ["94"], ["632.8"], ["1.3826", "0.0003"]], [["0.1"], ["314.54"], ["94"], ["632.8"], ["1.3822", "0.0003"]], [["0.1"], ["315.578"], ["94"], ["632.8"], ["1.3818", "0.0003"]], [["0.2"], ["309.471"], ["94"], ["632.8"], ["1.3938", "0.0003"]], [["0.2"], ["310.446"], ["94"], ["632.8"], ["1.3934", "0.0003"]], [["0.2"], ["311.476"], ["94"], ["632.8"], ["1.3931", "0.0003"]], [["0.2"], ["312.469"], ["94"], ["632.8"], ["1.3927", "0.0003"]], [["0.2"], ["313.488"], ["94"], ["632.8"], ["1.3924", "0.0003"]], [["0.2"], ["314.48"], ["94"], ["632.8"], ["1.392", "0.0003"]], [["0.2"], ["315.578"], ["94"], ["632.8"], ["1.3916", "0.0003"]], [["0.3"], ["307.407"], ["94"], ["632.8"], ["1.4009", "0.0003"]], [["0.3"], ["308.401"], ["94"], ["632.8"], ["1.4006", "0.0003"]], [["0.3"], ["309.387"], ["94"], ["632.8"], ["1.4003", "0.0003"]], [["0.3"], ["310.419"], ["94"], ["632.8"], ["1.3999", "0.0003"]], [["0.3"], ["311.464"], ["94"], ["632.8"], ["1.3996", "0.0003"]], [["0.3"], ["312.403"], ["94"], ["632.8"], ["1.3993", "0.0003"]], [["0.3"], ["313.426"], ["94"], ["632.8"], ["1.399", "0.0003"]], [["0.3"], ["314.463"], ["94"], ["632.8"], ["1.3986", "0.0003"]], [["0.4"], ["307.296"], ["94"], ["632.8"], ["1.4056", "0.0003"]], [["0.4"], ["308.292"], ["94"], ["632.8"], ["1.4053", "0.0003"]], [["0.4"], ["309.354"], ["94"], ["632.8"], ["1.405", "0.0003"]], [["0.4"], ["310.361"], ["94"], ["632.8"], ["1.4047", "0.0003"]], [["0.4"], ["311.363"], ["94"], ["632.8"], ["1.4044", "0.0003"]], [["0.4"], ["312.374"], ["94"], ["632.8"], ["1.4041", "0.0003"]], [["0.4"], ["313.349"], ["94"], ["632.8"], ["1.4038", "0.0003"]], [["0.4"], ["314.388"], ["94"], ["632.8"], ["1.4035", "0.0003"]], [["0.5"], ["307.22"], ["94"], ["632.8"], ["1.4091", "0.0003"]], [["0.5"], ["308.214"], ["94"], ["632.8"], ["1.4088", "0.0003"]], [["0.5"], ["309.224"], ["94"], ["632.8"], ["1.4085", "0.0003"]], [["0.5"], ["310.254"], ["94"], ["632.8"], ["1.4082", "0.0003"]], [["0.5"], ["311.237"], ["94"], ["632.8"], ["1.4079", "0.0003"]], [["0.5"], ["312.247"], ["94"], ["632.8"], ["1.4076", "0.0003"]], [["0.5"], ["313.26"], ["94"], ["632.8"], ["1.4073", "0.0003"]], [["0.5"], ["314.266"], ["94"], ["632.8"], ["1.407", "0.0003"]], [["0.601"], ["307.286"], ["94"], ["632.8"], ["1.4119", "0.0003"]], [["0.601"], ["308.211"], ["94"], ["632.8"], ["1.4116", "0.0003"]], [["0.601"], ["309.239"], ["94"], ["632.8"], ["1.4113", "0.0003"]], [["0.601"], ["310.241"], ["94"], ["632.8"], ["1.411", "0.0003"]], [["0.601"], ["311.225"], ["94"], ["632.8"], ["1.4107", "0.0003"]], [["0.601"], ["312.239"], ["94"], ["632.8"], ["1.4104", "0.0003"]], [["0.601"], ["313.206"], ["94"], ["632.8"], ["1.4101", "0.0003"]], [["0.601"], ["314.225"], ["94"], ["632.8"], ["1.4098", "0.0003"]], [["0.699"], ["307.304"], ["94"], ["632.8"], ["1.4141", "0.0003"]], [["0.699"], ["308.193"], ["94"], ["632.8"], ["1.4138", "0.0003"]], [["0.699"], ["309.268"], ["94"], ["632.8"], ["1.4135", "0.0003"]], [["0.699"], ["310.313"], ["94"], ["632.8"], ["1.4132", "0.0003"]], [["0.699"], ["311.253"], ["94"], ["632.8"], ["1.413", "0.0003"]], [["0.699"], ["312.261"], ["94"], ["632.8"], ["1.4127", "0.0003"]], [["0.699"], ["313.372"], ["94"], ["632.8"], ["1.4124", "0.0003"]], [["0.699"], ["314.225"], ["94"], ["632.8"], ["1.4121", "0.0003"]], [["0.8"], ["307.217"], ["94"], ["632.8"], ["1.4159", "0.0003"]], [["0.8"], ["308.249"], ["94"], ["632.8"], ["1.4156", "0.0003"]], [["0.8"], ["309.24"], ["94"], ["632.8"], ["1.4154", "0.0003"]], [["0.8"], ["310.252"], ["94"], ["632.8"], ["1.4151", "0.0003"]], [["0.8"], ["311.264"], ["94"], ["632.8"], ["1.4148", "0.0003"]], [["0.8"], ["312.223"], ["94"], ["632.8"], ["1.4146", "0.0003"]], [["0.8"], ["313.248"], ["94"], ["632.8"], ["1.4143", "0.0003"]], [["0.8"], ["314.291"], ["94"], ["632.8"], ["1.414", "0.0003"]], [["0.901"], ["307.28"], ["94"], ["632.8"], ["1.4177", "0.0003"]], [["0.901"], ["308.234"], ["94"], ["632.8"], ["1.4174", "0.0003"]], [["0.901"], ["309.245"], ["94"], ["632.8"], ["1.4171", "0.0003"]], [["0.901"], ["310.34"], ["94"], ["632.8"], ["1.4168", "0.0003"]], [["0.901"], ["311.25"], ["94"], ["632.8"], ["1.4166", "0.0003"]], [["0.901"], ["312.347"], ["94"], ["632.8"], ["1.4163", "0.0003"]], [["0.901"], ["313.26"], ["94"], ["632.8"], ["1.416", "0.0003"]], [["0.901"], ["314.291"], ["94"], ["632.8"], ["1.4157", "0.0003"]], [["1"], ["298.186"], ["94"], ["632.8"], ["1.4215", "0.0003"]], [["1"], ["300.196"], ["94"], ["632.8"], ["1.421", "0.0003"]], [["1"], ["302.192"], ["94"], ["632.8"], ["1.4204", "0.0003"]], [["1"], ["304.197"], ["94"], ["632.8"], ["1.4199", "0.0003"]], [["1"], ["306.222"], ["94"], ["632.8"], ["1.4193", "0.0003"]], [["1"], ["308.236"], ["94"], ["632.8"], ["1.4188", "0.0003"]], [["1"], ["310.251"], ["94"], ["632.8"], ["1.4183", "0.0003"]], [["1"], ["312.243"], ["94"], ["632.8"], ["1.4178", "0.0003"]]], "solvent": null, "expmeth": "minimum deviation method", "constr": [], "ref": {"full": "Guo, Y.; Zhang, X.; Xu, C.; Shen, W. (2017) J. Chem. Thermodyn. 105, 434-442.", "title": "Liquid-liquid phase equilibrium and heat capacity of binary solution {2-propanol + 1-octyl-3-methylimidazolium hexafluorophosphate}"}, "phases": ["Liquid"]}