{"expmeth": "Standard Abbe refractometry", "data": [[["283.16"], ["101.325"], ["1.4215", "0.0006"]], [["293.12"], ["101.325"], ["1.4195", "0.0006"]], [["303.14"], ["101.325"], ["1.4168", "0.0006"]], [["313.13"], ["101.325"], ["1.4141", "0.0006"]], [["323.12"], ["101.325"], ["1.4116", "0.0006"]]], "solvent": null, "footer": "", "dhead": [["Temperature, K", null], ["Pressure, kPa", null], ["Refractive index (Na D-line)", "Liquid"]], "components": [{"name": "1-butyl-3-methylimidazolium tetrafluoroborate", "formula": "C<SUB>8</SUB>H<SUB>15</SUB>BF<SUB>4</SUB>N<SUB>2</SUB>", "idout": "AArYBF", "mw": "226.03", "sample": [["Source:", "commercial source"], ["Purification:", "stated by supplier"], ["Purity:", "98 mass %"]]}], "title": "Refraction, surface tension, and speed of sound: Refractive index (Na D-line)", "phases": ["Liquid"], "ref": {"title": "Physicochemical Properties of Nitrile-Functionalized Ionic Liquids", "full": "Zhang, Q.; Li, Z.; Zhang, J.; Zhang, S.; Zhu, L.; Yang, J.; Zhang, X.; Deng, Y. (2007) J. Phys. Chem. B 111, 2864-2872."}, "constr": []}