{"components": [{"sample": [["Source:", "commercial source"], ["Purity analysis:", "dried by vacuum heating"]], "formula": "C<SUB>9</SUB>H<SUB>13</SUB>F<SUB>6</SUB>N<SUB>3</SUB>O<SUB>4</SUB>S<SUB>2</SUB>", "name": "1-methyl-3-propylimidazolium bis[(trifluoromethyl)sulfonyl]imide", "mw": "405.33", "idout": "ABZxGx"}], "title": "Refraction, surface tension, and speed of sound: Refractive index", "dhead": [["Temperature, K", null], ["Pressure, kPa", null], ["Wavelength, A", "Liquid"], ["Refractive index", "Liquid"]], "solvent": null, "data": [[["298.15"], ["100"], ["430.1"], ["1.4354", "0.0012"]], [["298.15"], ["100"], ["486.1"], ["1.4303", "0.0012"]], [["298.15"], ["100"], ["589.6"], ["1.4247", "0.0012"]], [["298.15"], ["100"], ["656.3"], ["1.4224", "0.0012"]], [["298.15"], ["100"], ["822.7"], ["1.4188", "0.0012"]], [["303.15"], ["100"], ["430.1"], ["1.4338", "0.0012"]], [["303.15"], ["100"], ["486.1"], ["1.4288", "0.0012"]], [["303.15"], ["100"], ["589.6"], ["1.4232", "0.0012"]], [["303.15"], ["100"], ["656.3"], ["1.421", "0.0012"]], [["303.15"], ["100"], ["822.7"], ["1.4175", "0.0012"]], [["308.15"], ["100"], ["430.1"], ["1.4323", "0.0012"]], [["308.15"], ["100"], ["486.1"], ["1.4273", "0.0012"]], [["308.15"], ["100"], ["589.6"], ["1.4218", "0.0012"]], [["308.15"], ["100"], ["656.3"], ["1.4196", "0.0012"]], [["308.15"], ["100"], ["822.7"], ["1.4161", "0.0012"]], [["313.15"], ["100"], ["430.1"], ["1.4306", "0.0012"]], [["313.15"], ["100"], ["486.1"], ["1.4257", "0.0012"]], [["313.15"], ["100"], ["589.6"], ["1.4202", "0.0012"]], [["313.15"], ["100"], ["656.3"], ["1.418", "0.0012"]], [["313.15"], ["100"], ["822.7"], ["1.4145", "0.0012"]], [["318.15"], ["100"], ["430.1"], ["1.4291", "0.0012"]], [["318.15"], ["100"], ["486.1"], ["1.4241", "0.0012"]], [["318.15"], ["100"], ["589.6"], ["1.4186", "0.0012"]], [["318.15"], ["100"], ["656.3"], ["1.4164", "0.0012"]], [["318.15"], ["100"], ["822.7"], ["1.413", "0.0012"]], [["323.15"], ["100"], ["430.1"], ["1.4276", "0.0012"]], [["323.15"], ["100"], ["486.1"], ["1.4227", "0.0012"]], [["323.15"], ["100"], ["589.6"], ["1.4172", "0.0012"]], [["323.15"], ["100"], ["656.3"], ["1.415", "0.0012"]], [["323.15"], ["100"], ["822.7"], ["1.4117", "0.0012"]]], "footer": "", "expmeth": "Interferometry", "ref": {"title": "Modeling the Temperature-Dependent Material Dispersion of Imidazolium-Based Ionic Liquids in the VIS-NIR", "full": "Arosa, Y.; Algnamat, B. S.; Rodriguez, C. D.; Lago, E. L.; Varela, L. M.; de la Fuente, R. (2018) J. Phys. Chem. C 122(51), 29470-29478."}, "constr": [], "phases": ["Liquid"]}