{"phases": ["Liquid"], "constr": [], "ref": {"full": "Tariq, M.; Forte, P. A. S.; Gomes, M. F. C.; Lopes, J. N. C.; Rebelo, L. P. N. (2009) J. Chem. Thermodyn. 41(6), 790-798.", "title": "Densities and refractive indices of imidazolium- and phosphonium-based ionic liquids: Effect of temperature, alkyl chain length, and anion"}, "expmeth": "Standard Abbe refractometry", "solvent": null, "data": [[["293.15"], ["101.325"], ["1.42251", "0.00072"]], [["298.15"], ["101.325"], ["1.4215", "0.00074"]], [["313.15"], ["101.325"], ["1.41748", "0.00074"]], [["333.15"], ["101.325"], ["1.41246", "0.00074"]]], "footer": "", "dhead": [["Temperature, K", null], ["Pressure, kPa", null], ["Refractive index (Na D-line)", "Liquid"]], "components": [{"mw": "226.03", "idout": "AArYBF", "formula": "C<SUB>8</SUB>H<SUB>15</SUB>BF<SUB>4</SUB>N<SUB>2</SUB>", "name": "1-butyl-3-methylimidazolium tetrafluoroborate", "sample": [["Source:", "commercial source"], ["Purification:", "estimated by the compiler;Karl Fischer titration"], ["Purity:", "99 mass %;0.015 water mass %(dried by vacuum heating)"]]}], "title": "Refraction, surface tension, and speed of sound: Refractive index (Na D-line)"}