{"components": [{"name": "1-(3-methoxy-3-oxopropyl)-3-propylimidazolium dicyanamide", "formula": "C<SUB>12</SUB>H<SUB>17</SUB>N<SUB>5</SUB>O<SUB>2</SUB>", "mw": "263.30", "idout": "AAyhuU", "sample": [["Source:", "synthesized by the authors"], ["Purity analysis:", "purification method described elsewhere"]]}], "title": "Refraction, surface tension, and speed of sound: Refractive index (Na D-line)", "dhead": [["Temperature, K", null], ["Pressure, kPa", null], ["Refractive index (Na D-line)", "Liquid"]], "data": [[["293"], ["101.325"], ["1.522", "0.01"]], [["303"], ["101.325"], ["1.518", "0.01"]], [["313"], ["101.325"], ["1.513", "0.01"]], [["323"], ["101.325"], ["1.507", "0.01"]], [["333"], ["101.325"], ["1.504", "0.01"]]], "solvent": null, "footer": "", "expmeth": "Standard Abbe refractometry", "ref": {"full": "Venkatraman, V.; Raj, J. J.; Evjen, S.; Lethesh, K. C.; Fiksdahl, A. (2018) J. Mol. Liq. 264, 563-570.", "title": "In silico prediction and experimental verification of ionic liquid refractive indices"}, "constr": [], "phases": ["Liquid"]}