{"title": "Refraction, surface tension, and speed of sound: Refractive index (Na D-line)", "components": [{"sample": [["Source:", "commercial source"], ["Initial purification:", "stated by supplier"], ["Initial purity:", "99 mass %"], ["Final purification:", "Karl Fischer titration"], ["Final purity:", "0.07 water mass %"]], "mw": "226.03", "idout": "AArYBF", "name": "1-butyl-3-methylimidazolium tetrafluoroborate", "formula": "C<SUB>8</SUB>H<SUB>15</SUB>BF<SUB>4</SUB>N<SUB>2</SUB>"}], "dhead": [["Temperature, K", null], ["Pressure, kPa", null], ["Refractive index (Na D-line)", "Liquid"]], "footer": "", "data": [[["298.15"], ["101.325"], ["1.4215", "0.002"]], [["303.15"], ["101.325"], ["1.4208", "0.002"]], [["308.15"], ["101.325"], ["1.4199", "0.002"]], [["313.15"], ["101.325"], ["1.419", "0.002"]], [["318.15"], ["101.325"], ["1.4182", "0.002"]], [["323.15"], ["101.325"], ["1.4173", "0.002"]], [["328.15"], ["101.325"], ["1.4168", "0.002"]], [["333.15"], ["101.325"], ["1.4159", "0.002"]]], "solvent": null, "expmeth": "Standard Abbe refractometry", "constr": [], "ref": {"full": "Ahmad, W.; Al-Ajmi, A.; Vakili-Nezhaad, G. R. (2019) J. Solution Chem. 48(5), 578-610.", "title": "Investigation of Physico-chemical Properties for the 1-Butyl-3-methylimidazolium Tetrafluoroborate ([Bmim][BF4])-Diethylenetriamine (DETA) System for CO2 Capture"}, "phases": ["Liquid"]}