{"ref": {"title": "Study of molecular interactions in binary liquid mixtures of [Emim][BF4] with 2-methoxyethanol using thermo acoustic, volumetric and optical properties", "full": "Srinivasa Reddy, M.; Nayeem, S. M.; Soumini, C.; Raju, K. T. S. S.; Hari Babu, B. (2016) Thermochim. Acta 630, 37-49."}, "constr": [], "phases": ["Liquid"], "components": [{"sample": [["Source:", "commercial source"], ["Initial purification:", "stated by supplier"], ["Initial purity:", "99 mass %"], ["Final purification:", "Karl Fischer titration"], ["Final purity:", "0.0050 water mass %"]], "name": "1-ethyl-3-methylimidazolium tetrafluoroborate", "formula": "C<SUB>6</SUB>H<SUB>11</SUB>BF<SUB>4</SUB>N<SUB>2</SUB>", "mw": "197.97", "idout": "AAmDom"}], "title": "Refraction, surface tension, and speed of sound: Refractive index (Na D-line)", "dhead": [["Temperature, K", null], ["Pressure, kPa", null], ["Refractive index (Na D-line)", "Liquid"]], "data": [[["298.15"], ["101.3"], ["1.4103", "0.0004"]], [["308.15"], ["101.3"], ["1.4077", "0.0004"]], [["318.15"], ["101.3"], ["1.4051", "0.0004"]], [["328.15"], ["101.3"], ["1.4023", "0.0004"]]], "solvent": null, "footer": "", "expmeth": "Standard Abbe refractometry"}