{"ref": {"title": "Effect of the temperature on the physical properties of pure 1-propyl-3-methylimidazolium bis(trifluoromethylsulfonyl)imide and characterization of its binary mixtures with alcohols", "full": "Gomez, E.; Calvar, N.; Macedo, E. A.; Dominguez, A. (2012) J. Chem. Thermodyn. 45(1), 9-15."}, "constr": [], "phases": ["Liquid"], "components": [{"sample": [["Source:", "commercial source"], ["Purification:", "stated by supplier"], ["Purity:", "99.9 mass %"], ["Purity analysis:", "de-gassed by boiling or ultrasonically;molecular sieve treatment"]], "formula": "CH<SUB>4</SUB>O", "name": "methanol", "mw": "32.04", "idout": "AAGIBL"}, {"sample": [["Source:", "commercial source"], ["Initial purification:", "stated by supplier"], ["Initial purity:", "99 mass %"], ["Final purification:", "Karl Fischer titration;ion chromatography"], ["Final purity:", "0.00005 water mass %;0.000053 halide impurity mass %(dried by vacuum heating)"]], "name": "1-methyl-3-propylimidazolium bis[(trifluoromethyl)sulfonyl]imide", "formula": "C<SUB>9</SUB>H<SUB>13</SUB>F<SUB>6</SUB>N<SUB>3</SUB>O<SUB>4</SUB>S<SUB>2</SUB>", "mw": "405.33", "idout": "ABZxGx"}], "title": "Refraction, surface tension, and speed of sound: Refractive index (Na D-line)", "dhead": [["Mole fraction of methanol", "Liquid"], ["Temperature, K", null], ["Pressure, kPa", null], ["Refractive index (Na D-line)", "Liquid"]], "data": [[["0"], ["298.15"], ["101"], ["1.42525", "0.0007"]], [["0.099"], ["298.15"], ["101"], ["1.4237", "0.0007"]], [["0.2012"], ["298.15"], ["101"], ["1.42185", "0.00069"]], [["0.2973"], ["298.15"], ["101"], ["1.41964", "0.00069"]], [["0.4068"], ["298.15"], ["101"], ["1.41652", "0.00069"]], [["0.5067"], ["298.15"], ["101"], ["1.41274", "0.00068"]], [["0.601"], ["298.15"], ["101"], ["1.40806", "0.00068"]], [["0.6936"], ["298.15"], ["101"], ["1.40193", "0.00068"]], [["0.7948"], ["298.15"], ["101"], ["1.39113", "0.00068"]], [["0.9009"], ["298.15"], ["101"], ["1.37097", "0.00068"]], [["0.9499"], ["298.15"], ["101"], ["1.35417", "0.00068"]], [["1"], ["298.15"], ["101"], ["1.32648", "0.00068"]]], "solvent": null, "footer": "", "expmeth": "Standard Abbe refractometry"}