{"dhead": [["Temperature, K", null], ["Pressure, kPa", null], ["Refractive index (Na D-line)", "Liquid"]], "components": [{"name": "1-butyl-2-methylpyridinium tetrafluoroborate", "formula": "C<SUB>10</SUB>H<SUB>16</SUB>BF<SUB>4</SUB>N", "mw": "237.05", "idout": "AAtepM", "sample": [["Source:", "commercial source"], ["Initial purification:", "stated by supplier"], ["Initial purity:", "99 % (basis not specified)"], ["Final purification:", "Karl Fischer titration;Karl Fischer titration"], ["Final purity:", "0.00058 water mass %;0.000093 halide impurity mass %"]]}], "title": "Refraction, surface tension, and speed of sound: Refractive index (Na D-line)", "expmeth": "Standard Abbe refractometry", "data": [[["298.15"], ["101.325"], ["1.4545", "0.0005"]], [["318.15"], ["101.325"], ["1.45", "0.0005"]]], "solvent": null, "footer": "", "constr": [], "ref": {"full": "Navas, A.; Ortega, J.; Vreekamp, R.; Marrero, E.; Palomar, J. (2009) Ind. Eng. Chem. Res. 48, 2678 - 2690.", "title": "Experimental Thermodynamic Properties of 1-Butyl-2-methylpyridinium Tetrafluoroborate [b2mpy][BF4] with Water and with Alkan-1-ol and Their Interpretation with the COSMO-RS Methodology"}, "phases": ["Liquid"]}