{"components": [{"mw": "277.29", "idout": "ABBQsr", "name": "1-hexylpyridinium trifluoroacetate", "formula": "C<SUB>13</SUB>H<SUB>18</SUB>F<SUB>3</SUB>NO<SUB>2</SUB>", "sample": [["Source:", "synthesized by the authors"], ["Purification:", "NMR (proton);Karl Fischer titration;ion-selective electrode"], ["Purity:", "99 mass %;0.05 water mass %;0.05 halide impurity mass %(dried by vacuum heating)"]]}], "title": "Refraction, surface tension, and speed of sound: Refractive index (Na D-line)", "dhead": [["Temperature, K", null], ["Pressure, kPa", null], ["Refractive index (Na D-line)", "Liquid"]], "data": [[["293.15"], ["100"], ["1.4784", "0.0031"]], [["298.15"], ["100"], ["1.477", "0.0031"]], [["303.15"], ["100"], ["1.4754", "0.0031"]], [["308.15"], ["100"], ["1.474", "0.0031"]], [["313.15"], ["100"], ["1.4723", "0.0031"]], [["318.15"], ["100"], ["1.4711", "0.0031"]], [["323.15"], ["100"], ["1.4697", "0.0031"]], [["328.15"], ["100"], ["1.468", "0.0031"]], [["333.15"], ["100"], ["1.4667", "0.0031"]], [["338.15"], ["100"], ["1.4649", "0.0031"]], [["343.15"], ["100"], ["1.4636", "0.0031"]]], "solvent": null, "footer": "", "expmeth": "Standard Abbe refractometry", "constr": [], "ref": {"title": "Physicochemical properties of N-alkylpyridine trifluoroacetate ionic liquids [CnPy][TFA] (n = 2-6)", "full": "Song, Zongren; Yan, Qiang; Xia, Meichen; Qi, Xiaochen; Zhang, Zhiheng; Wei, Jie; Fang, Dawei; Ma, Xiaoxue (2021) J. Chem. Thermodyn. 155, 106366."}, "phases": ["Liquid"]}