{"components": [{"sample": [["Source:", "commercial source"], ["Purification:", "estimated by the compiler"], ["Purity:", "99 mass %(fractional distillation)"]], "idout": "AADYJk", "mw": "18.02", "formula": "H<SUB>2</SUB>O", "name": "water"}, {"mw": "200.24", "idout": "AAmaPc", "formula": "C<SUB>9</SUB>H<SUB>16</SUB>N<SUB>2</SUB>O<SUB>3</SUB>", "name": "1-ethyl-3-methylimidazolium lactate", "sample": [["Source:", "synthesized by the authors"], ["Purification:", "estimated by the compiler"], ["Purity:", "98 mass %(dried by vacuum heating)"]]}], "title": "Refraction, surface tension, and speed of sound: Refractive index (Na D-line)", "dhead": [["Weight fraction of water", "Liquid"], ["Temperature, K", null], ["Pressure, kPa", null], ["Refractive index (Na D-line)", "Liquid"]], "solvent": null, "data": [[["0.0082"], ["288.15"], ["101"], ["1.5019", "0.0005"]], [["0.0082"], ["293.15"], ["101"], ["1.5006", "0.0005"]], [["0.0082"], ["303.15"], ["101"], ["1.498", "0.0005"]], [["0.0082"], ["308.15"], ["101"], ["1.4969", "0.0005"]], [["0.0082"], ["313.15"], ["101"], ["1.4955", "0.0005"]], [["0.0082"], ["318.15"], ["101"], ["1.4943", "0.0005"]], [["0.0082"], ["323.15"], ["101"], ["1.4931", "0.0005"]], [["0.0082"], ["328.15"], ["101"], ["1.4919", "0.0005"]], [["0.0082"], ["333.15"], ["101"], ["1.4906", "0.0005"]], [["0.0104"], ["288.15"], ["101"], ["1.5017", "0.0005"]], [["0.0104"], ["293.15"], ["101"], ["1.5004", "0.0005"]], [["0.0104"], ["303.15"], ["101"], ["1.4978", "0.0005"]], [["0.0104"], ["308.15"], ["101"], ["1.4967", "0.0005"]], [["0.0104"], ["313.15"], ["101"], ["1.4953", "0.0005"]], [["0.0104"], ["318.15"], ["101"], ["1.4941", "0.0005"]], [["0.0104"], ["323.15"], ["101"], ["1.493", "0.0005"]], [["0.0104"], ["328.15"], ["101"], ["1.4917", "0.0005"]], [["0.0104"], ["333.15"], ["101"], ["1.4904", "0.0005"]], [["0.0121"], ["288.15"], ["101"], ["1.5016", "0.0005"]], [["0.0121"], ["293.15"], ["101"], ["1.5002", "0.0005"]], [["0.0121"], ["303.15"], ["101"], ["1.4977", "0.0005"]], [["0.0121"], ["308.15"], ["101"], ["1.4965", "0.0005"]], [["0.0121"], ["313.15"], ["101"], ["1.4952", "0.0005"]], [["0.0121"], ["318.15"], ["101"], ["1.494", "0.0005"]], [["0.0121"], ["323.15"], ["101"], ["1.4929", "0.0005"]], [["0.0121"], ["328.15"], ["101"], ["1.4915", "0.0005"]], [["0.0121"], ["333.15"], ["101"], ["1.4903", "0.0005"]], [["0.0158"], ["288.15"], ["101"], ["1.5013", "0.0005"]], [["0.0158"], ["293.15"], ["101"], ["1.4999", "0.0005"]], [["0.0158"], ["303.15"], ["101"], ["1.4974", "0.0005"]], [["0.0158"], ["308.15"], ["101"], ["1.4962", "0.0005"]], [["0.0158"], ["313.15"], ["101"], ["1.4949", "0.0005"]], [["0.0158"], ["318.15"], ["101"], ["1.4937", "0.0005"]], [["0.0158"], ["323.15"], ["101"], ["1.4927", "0.0005"]], [["0.0158"], ["328.15"], ["101"], ["1.4912", "0.0005"]], [["0.0158"], ["333.15"], ["101"], ["1.49", "0.0005"]], [["0.0205"], ["288.15"], ["101"], ["1.5009", "0.0005"]], [["0.0205"], ["293.15"], ["101"], ["1.4994", "0.0005"]], [["0.0205"], ["303.15"], ["101"], ["1.497", "0.0005"]], [["0.0205"], ["308.15"], ["101"], ["1.4957", "0.0005"]], [["0.0205"], ["313.15"], ["101"], ["1.4946", "0.0005"]], [["0.0205"], ["318.15"], ["101"], ["1.4933", "0.0005"]], [["0.0205"], ["323.15"], ["101"], ["1.4924", "0.0005"]], [["0.0205"], ["328.15"], ["101"], ["1.4908", "0.0005"]], [["0.0205"], ["333.15"], ["101"], ["1.4896", "0.0005"]]], "footer": "", "expmeth": "Standard Abbe refractometry", "ref": {"full": "Hong, M.; Sun, A.; Yang, Q.; Guan, W.; Tong, J.; Yang, J. -Z. (2013) J. Chem. Thermodyn. 67, 91-98.", "title": "Studies on properties of ionic liquids 1-alkyl-3-methylimidazolium lactate at temperatures from (288.15 to 333.15) K"}, "constr": [], "phases": ["Liquid"]}