{"constr": [], "ref": {"title": "Aqueous-phase green synthesis of formate-based ionic liquids and their thermophysical properties", "full": "Chen, Z.; Li, Z.; Ma, X.; Xu, L.; Wang, Y.; Zhang, S. (2019) J. Mol. Liq. 279, 370-377."}, "phases": ["Liquid"], "components": [{"sample": [["Source:", "synthesized by the authors"], ["Purification:", "NMR (proton);Karl Fischer titration;ion-selective electrode"], ["Purity:", "98.9 mass %;0.1123 water mass %;0.011 halide impurity mass %(dried by vacuum heating)"]], "name": "3-butyl-1-methyl-1H-imidazolium formate", "formula": "C<SUB>9</SUB>H<SUB>16</SUB>N<SUB>2</SUB>O<SUB>2</SUB>", "idout": "AAjWoe", "mw": "184.24"}], "title": "Refraction, surface tension, and speed of sound: Refractive index (Na D-line)", "dhead": [["Pressure, kPa", null], ["Temperature, K", null], ["Refractive index (Na D-line)", "Liquid"]], "data": [[["89.3"], ["298.15"], ["1.4958", "0.0005"]]], "solvent": null, "footer": "", "expmeth": "Standard Abbe refractometry"}