{"components": [{"formula": "C<SUB>2</SUB>H<SUB>6</SUB>O<SUB>2</SUB>", "name": "1,2-ethanediol", "idout": "AALwIY", "mw": "62.07", "sample": [["Source:", "commercial source"], ["Initial purification:", "stated by supplier"], ["Initial purity:", "99 mass %"], ["Final purification:", "Karl Fischer titration"], ["Final purity:", "0.045 water mass %(de-gassed by boiling or ultrasonically)"]]}, {"sample": [["Source:", "commercial source"], ["Initial purification:", "stated by supplier"], ["Initial purity:", "98 mass %"], ["Final purification:", "Karl Fischer titration"], ["Final purity:", "0.030 water mass %(de-gassed by boiling or ultrasonically)"]], "formula": "C<SUB>10</SUB>H<SUB>19</SUB>ClN<SUB>2</SUB>", "name": "1-hexyl-3-methylimidazolium chloride", "mw": "202.73", "idout": "AAmzKp"}], "title": "Refraction, surface tension, and speed of sound: Refractive index (Na D-line)", "dhead": [["Temperature, K", null], ["Mole fraction of 1-hexyl-3-methylimidazolium chloride", "Liquid"], ["Pressure, kPa", null], ["Refractive index (Na D-line)", "Liquid"]], "data": [[["293.15"], ["0"], ["101"], ["1.43177", "0.0004"]], [["293.15"], ["0.003"], ["101"], ["1.43261", "0.0004"]], [["293.15"], ["0.0061"], ["101"], ["1.43272", "0.0004"]], [["293.15"], ["0.0124"], ["101"], ["1.43493", "0.0004"]], [["293.15"], ["0.0188"], ["101"], ["1.43614", "0.0004"]], [["293.15"], ["0.0239"], ["101"], ["1.43758", "0.00041"]], [["293.15"], ["0.0358"], ["101"], ["1.44007", "0.00041"]], [["293.15"], ["0.0468"], ["101"], ["1.44247", "0.00041"]], [["293.15"], ["0.069"], ["101"], ["1.44657", "0.00041"]], [["293.15"], ["0.0848"], ["101"], ["1.44959", "0.00041"]], [["293.15"], ["0.1002"], ["101"], ["1.45225", "0.00041"]], [["293.15"], ["0.1103"], ["101"], ["1.45372", "0.00041"]], [["293.15"], ["0.1974"], ["101"], ["1.46551", "0.00042"]], [["293.15"], ["0.3013"], ["101"], ["1.47616", "0.00043"]], [["293.15"], ["0.3998"], ["101"], ["1.48114", "0.00045"]], [["293.15"], ["0.5023"], ["101"], ["1.48958", "0.00046"]], [["293.15"], ["0.6001"], ["101"], ["1.50172", "0.00047"]], [["293.15"], ["0.6833"], ["101"], ["1.5056", "0.00048"]], [["293.15"], ["0.8474"], ["101"], ["1.51262", "0.00051"]], [["293.15"], ["1"], ["101"], ["1.51481", "0.00053"]], [["303.15"], ["0"], ["101"], ["1.42905", "0.0004"]], [["303.15"], ["0.003"], ["101"], ["1.42988", "0.0004"]], [["303.15"], ["0.0061"], ["101"], ["1.42997", "0.0004"]], [["303.15"], ["0.0124"], ["101"], ["1.43216", "0.0004"]], [["303.15"], ["0.0188"], ["101"], ["1.43335", "0.0004"]], [["303.15"], ["0.0239"], ["101"], ["1.43481", "0.0004"]], [["303.15"], ["0.0358"], ["101"], ["1.43728", "0.00041"]], [["303.15"], ["0.0468"], ["101"], ["1.4397", "0.00041"]], [["303.15"], ["0.069"], ["101"], ["1.44378", "0.00041"]], [["303.15"], ["0.0848"], ["101"], ["1.44684", "0.00041"]], [["303.15"], ["0.1002"], ["101"], ["1.44946", "0.00041"]], [["303.15"], ["0.1103"], ["101"], ["1.45089", "0.00041"]], [["303.15"], ["0.1974"], ["101"], ["1.46273", "0.00042"]], [["303.15"], ["0.3013"], ["101"], ["1.47358", "0.00043"]], [["303.15"], ["0.3998"], ["101"], ["1.47805", "0.00045"]], [["303.15"], ["0.5023"], ["101"], ["1.48676", "0.00046"]], [["303.15"], ["0.6001"], ["101"], ["1.49901", "0.00047"]], [["303.15"], ["0.6833"], ["101"], ["1.50238", "0.00048"]], [["303.15"], ["0.8474"], ["101"], ["1.50999", "0.00051"]], [["303.15"], ["1"], ["101"], ["1.51235", "0.00053"]], [["313.15"], ["0"], ["101"], ["1.42623", "0.0004"]], [["313.15"], ["0.003"], ["101"], ["1.42703", "0.0004"]], [["313.15"], ["0.0061"], ["101"], ["1.42716", "0.0004"]], [["313.15"], ["0.0124"], ["101"], ["1.42936", "0.0004"]], [["313.15"], ["0.0188"], ["101"], ["1.43054", "0.0004"]], [["313.15"], ["0.0239"], ["101"], ["1.432", "0.0004"]], [["313.15"], ["0.0358"], ["101"], ["1.43447", "0.00041"]], [["313.15"], ["0.0468"], ["101"], ["1.4369", "0.00041"]], [["313.15"], ["0.069"], ["101"], ["1.44097", "0.00041"]], [["313.15"], ["0.0848"], ["101"], ["1.44402", "0.00041"]], [["313.15"], ["0.1002"], ["101"], ["1.4466", "0.00041"]], [["313.15"], ["0.1103"], ["101"], ["1.44807", "0.00041"]], [["313.15"], ["0.1974"], ["101"], ["1.45984", "0.00042"]], [["313.15"], ["0.3013"], ["101"], ["1.47102", "0.00043"]], [["313.15"], ["0.3998"], ["101"], ["1.4756", "0.00045"]], [["313.15"], ["0.5023"], ["101"], ["1.48393", "0.00046"]], [["313.15"], ["0.6001"], ["101"], ["1.49425", "0.00047"]], [["313.15"], ["0.6833"], ["101"], ["1.49539", "0.00048"]], [["313.15"], ["0.8474"], ["101"], ["1.50732", "0.00051"]], [["313.15"], ["1"], ["101"], ["1.5097", "0.00053"]], [["323.15"], ["0"], ["101"], ["1.42339", "0.0004"]], [["323.15"], ["0.003"], ["101"], ["1.42414", "0.0004"]], [["323.15"], ["0.0061"], ["101"], ["1.42436", "0.0004"]], [["323.15"], ["0.0124"], ["101"], ["1.42646", "0.00041"]], [["323.15"], ["0.0188"], ["101"], ["1.4279", "0.0004"]], [["323.15"], ["0.0239"], ["101"], ["1.42914", "0.0004"]], [["323.15"], ["0.0358"], ["101"], ["1.43166", "0.00041"]], [["323.15"], ["0.0468"], ["101"], ["1.43402", "0.00041"]], [["323.15"], ["0.069"], ["101"], ["1.43817", "0.00041"]], [["323.15"], ["0.0848"], ["101"], ["1.44116", "0.00041"]], [["323.15"], ["0.1002"], ["101"], ["1.44373", "0.00041"]], [["323.15"], ["0.1103"], ["101"], ["1.44526", "0.00041"]], [["323.15"], ["0.1974"], ["101"], ["1.45688", "0.00042"]], [["323.15"], ["0.3013"], ["101"], ["1.46849", "0.00043"]], [["323.15"], ["0.3998"], ["101"], ["1.47334", "0.00045"]], [["323.15"], ["0.5023"], ["101"], ["1.4812", "0.00046"]], [["323.15"], ["0.6001"], ["101"], ["1.4932", "0.00047"]], [["323.15"], ["0.6833"], ["101"], ["1.49356", "0.00048"]], [["323.15"], ["0.8474"], ["101"], ["1.50422", "0.00051"]], [["323.15"], ["1"], ["101"], ["1.5073", "0.00053"]], [["333.15"], ["0"], ["101"], ["1.42044", "0.0004"]], [["333.15"], ["0.003"], ["101"], ["1.42117", "0.0004"]], [["333.15"], ["0.0061"], ["101"], ["1.42155", "0.0004"]], [["333.15"], ["0.0124"], ["101"], ["1.42357", "0.00041"]], [["333.15"], ["0.0188"], ["101"], ["1.42508", "0.0004"]], [["333.15"], ["0.0239"], ["101"], ["1.4262", "0.0004"]], [["333.15"], ["0.0358"], ["101"], ["1.42888", "0.00041"]], [["333.15"], ["0.0468"], ["101"], ["1.43114", "0.00041"]], [["333.15"], ["0.069"], ["101"], ["1.43542", "0.00041"]], [["333.15"], ["0.0848"], ["101"], ["1.43827", "0.00041"]], [["333.15"], ["0.1002"], ["101"], ["1.4408", "0.00041"]], [["333.15"], ["0.1103"], ["101"], ["1.44255", "0.00041"]], [["333.15"], ["0.1974"], ["101"], ["1.45385", "0.00042"]], [["333.15"], ["0.3013"], ["101"], ["1.4658", "0.00043"]], [["333.15"], ["0.3998"], ["101"], ["1.47138", "0.00045"]], [["333.15"], ["0.5023"], ["101"], ["1.47886", "0.00046"]], [["333.15"], ["0.6001"], ["101"], ["1.48688", "0.00047"]], [["333.15"], ["0.6833"], ["101"], ["1.49114", "0.00048"]], [["333.15"], ["0.8474"], ["101"], ["1.50149", "0.00051"]], [["333.15"], ["1"], ["101"], ["1.50492", "0.00053"]]], "solvent": null, "footer": "", "expmeth": "Standard Abbe refractometry", "constr": [], "ref": {"title": "A Thermodynamic and Physical Study on (1-Hexyl-3-methylimidazolium Chloride + 1-Pentanol and Ethylene Glycol) Binary Mixtures at Temperatures (293.15 333.15) K", "full": "Kermanpour, F.; Rabie, M. M.; Broumand, S. (2017) J. Solution Chem. 46, 2091-2108."}, "phases": ["Liquid"]}