{"components": [{"sample": [["Source:", "synthesized by the authors"], ["Purification:", "estimated by the compiler"], ["Purity:", "97 % (basis not specified)(dried by vacuum heating)"]], "mw": "191.27", "idout": "AAkops", "name": "N-methyl-2-hydroxyethylammonium hexanoate", "formula": "C<SUB>9</SUB>H<SUB>21</SUB>NO<SUB>3</SUB>"}], "title": "Refraction, surface tension, and speed of sound: Refractive index (Na D-line)", "dhead": [["Temperature, K", null], ["Pressure, kPa", null], ["Refractive index (Na D-line)", "Liquid"]], "data": [[["288.15"], ["101.325"], ["1.4599", "0.0014"]]], "solvent": null, "footer": "", "expmeth": "Standard Abbe refractometry", "ref": {"full": "Alvarez, V. H.; Mattedi, S.; Aznar, M. (2012) Ind. Eng. Chem. Res. 51, 14543-14554.", "title": "Density, Refraction Index, and Vapor.Liquid Equilibria of  n.Methyl-2-hydroxyethylammonium Hexanoate Plus (Methyl  Acetate, Ethyl Acetate, or Propyl Acetate) at Several Temperatures"}, "constr": [], "phases": ["Liquid"]}