{"constr": [], "ref": {"full": "Montalban, M. G.; Bolivar, C. L.; Banos, F. G. D.; Villora, G. (2015) J. Chem. Eng. Data 60(7), 1986-1996.", "title": "Effect of Temperature, Anion, and Alkyl Chain Length on the Density and Refractive Index of 1-Alkyl-3-methylimidazolium-Based Ionic Liquids"}, "phases": ["Liquid"], "title": "Refraction, surface tension, and speed of sound: Refractive index (Na D-line)", "components": [{"sample": [["Source:", "commercial source"], ["Initial purification:", "stated by supplier"], ["Initial purity:", "99 mass %"], ["Final purification:", "not known"], ["Final purity:", "0.01 halide impurity mass %"]], "formula": "C<SUB>8</SUB>H<SUB>15</SUB>BF<SUB>4</SUB>N<SUB>2</SUB>", "name": "1-butyl-3-methylimidazolium tetrafluoroborate", "idout": "AArYBF", "mw": "226.03"}], "dhead": [["Temperature, K", null], ["Pressure, kPa", null], ["Refractive index (Na D-line)", "Liquid"]], "footer": "", "data": [[["293.15"], ["101.325"], ["1.422", "0.0016"]], [["303.15"], ["101.325"], ["1.42", "0.0016"]], [["313.15"], ["101.325"], ["1.418", "0.0016"]], [["323.15"], ["101.325"], ["1.416", "0.0015"]], [["333.15"], ["101.325"], ["1.415", "0.0015"]], [["343.15"], ["101.325"], ["1.4135", "0.0015"]]], "solvent": null, "expmeth": "Standard Abbe refractometry"}