{"title": "Refraction, surface tension, and speed of sound: Refractive index (Na D-line)", "components": [{"mw": "18.02", "idout": "AADYJk", "name": "water", "formula": "H<SUB>2</SUB>O", "sample": [["Source:", "commercial source"], ["Purification:", "estimated by the compiler"], ["Purity:", "99.9 mass %"]]}, {"formula": "C<SUB>7</SUB>H<SUB>11</SUB>F<SUB>3</SUB>N<SUB>2</SUB>O<SUB>3</SUB>S", "name": "1-ethyl-3-methylimidazolium trifluoromethanesulfonate", "idout": "AAyCVz", "mw": "260.23", "sample": [["Source:", "commercial source"], ["Initial purification:", "stated by supplier"], ["Initial purity:", "98 mass %"], ["Final purification:", "Karl Fischer titration"], ["Final purity:", "0.0005 water mass %(dried by vacuum heating)"]]}], "dhead": [["Temperature, K", null], ["Mole fraction of 1-ethyl-3-methylimidazolium trifluoromethanesulfonate", "Liquid"], ["Pressure, kPa", null], ["Refractive index (Na D-line)", "Liquid"]], "footer": "", "data": [[["288.15"], ["0"], ["101"], ["1.33351", "0.00031"]], [["288.15"], ["0.04954"], ["101"], ["1.37143", "0.00031"]], [["288.15"], ["0.0999"], ["101"], ["1.39058", "0.00032"]], [["288.15"], ["0.14834"], ["101"], ["1.40106", "0.00032"]], [["288.15"], ["0.1994"], ["101"], ["1.40835", "0.00032"]], [["288.15"], ["0.30511"], ["101"], ["1.4177", "0.00034"]], [["288.15"], ["0.39515"], ["101"], ["1.42298", "0.00035"]], [["288.15"], ["0.49028"], ["101"], ["1.42752", "0.00037"]], [["288.15"], ["0.608"], ["101"], ["1.42996", "0.0004"]], [["288.15"], ["0.69535"], ["101"], ["1.43186", "0.00042"]], [["288.15"], ["0.79941"], ["101"], ["1.43369", "0.00045"]], [["288.15"], ["0.84121"], ["101"], ["1.43434", "0.00046"]], [["288.15"], ["0.88772"], ["101"], ["1.43497", "0.00047"]], [["288.15"], ["0.93994"], ["101"], ["1.43567", "0.00049"]], [["288.15"], ["1"], ["101"], ["1.43599", "0.00051"]], [["298.15"], ["0"], ["101"], ["1.3325", "0.00031"]], [["298.15"], ["0.04954"], ["101"], ["1.36929", "0.00031"]], [["298.15"], ["0.0999"], ["101"], ["1.38737", "0.00032"]], [["298.15"], ["0.14834"], ["101"], ["1.39803", "0.00032"]], [["298.15"], ["0.1994"], ["101"], ["1.40554", "0.00032"]], [["298.15"], ["0.30511"], ["101"], ["1.4149", "0.00034"]], [["298.15"], ["0.39515"], ["101"], ["1.42008", "0.00035"]], [["298.15"], ["0.49028"], ["101"], ["1.42456", "0.00037"]], [["298.15"], ["0.608"], ["101"], ["1.42722", "0.0004"]], [["298.15"], ["0.69535"], ["101"], ["1.4293", "0.00042"]], [["298.15"], ["0.79941"], ["101"], ["1.43086", "0.00045"]], [["298.15"], ["0.84121"], ["101"], ["1.43152", "0.00046"]], [["298.15"], ["0.88772"], ["101"], ["1.4321", "0.00047"]], [["298.15"], ["0.93994"], ["101"], ["1.43277", "0.00049"]], [["298.15"], ["1"], ["101"], ["1.4332", "0.00051"]], [["308.15"], ["0"], ["101"], ["1.33123", "0.00031"]], [["308.15"], ["0.04954"], ["101"], ["1.36693", "0.00031"]], [["308.15"], ["0.0999"], ["101"], ["1.38545", "0.00032"]], [["308.15"], ["0.14834"], ["101"], ["1.39582", "0.00032"]], [["308.15"], ["0.1994"], ["101"], ["1.40276", "0.00032"]], [["308.15"], ["0.30511"], ["101"], ["1.4121", "0.00034"]], [["308.15"], ["0.39515"], ["101"], ["1.41711", "0.00035"]], [["308.15"], ["0.49028"], ["101"], ["1.4215", "0.00037"]], [["308.15"], ["0.608"], ["101"], ["1.42441", "0.0004"]], [["308.15"], ["0.69535"], ["101"], ["1.42634", "0.00042"]], [["308.15"], ["0.79941"], ["101"], ["1.42814", "0.00045"]], [["308.15"], ["0.84121"], ["101"], ["1.42896", "0.00046"]], [["308.15"], ["0.88772"], ["101"], ["1.42942", "0.00047"]], [["308.15"], ["0.93994"], ["101"], ["1.43011", "0.00049"]], [["308.15"], ["1"], ["101"], ["1.4304", "0.00051"]], [["318.15"], ["0"], ["101"], ["1.32965", "0.00031"]], [["318.15"], ["0.04954"], ["101"], ["1.36455", "0.00031"]], [["318.15"], ["0.0999"], ["101"], ["1.38286", "0.00032"]], [["318.15"], ["0.14834"], ["101"], ["1.39377", "0.00032"]], [["318.15"], ["0.1994"], ["101"], ["1.39987", "0.00032"]], [["318.15"], ["0.30511"], ["101"], ["1.40921", "0.00034"]], [["318.15"], ["0.39515"], ["101"], ["1.41448", "0.00035"]], [["318.15"], ["0.49028"], ["101"], ["1.419", "0.00037"]], [["318.15"], ["0.608"], ["101"], ["1.42164", "0.0004"]], [["318.15"], ["0.69535"], ["101"], ["1.4236", "0.00042"]], [["318.15"], ["0.79941"], ["101"], ["1.42537", "0.00045"]], [["318.15"], ["0.84121"], ["101"], ["1.4262", "0.00046"]], [["318.15"], ["0.88772"], ["101"], ["1.42669", "0.00047"]], [["318.15"], ["0.93994"], ["101"], ["1.42732", "0.00049"]], [["318.15"], ["1"], ["101"], ["1.42767", "0.00051"]], [["328.15"], ["0"], ["101"], ["1.32784", "0.00031"]], [["328.15"], ["0.04954"], ["101"], ["1.36203", "0.00031"]], [["328.15"], ["0.0999"], ["101"], ["1.38018", "0.00032"]], [["328.15"], ["0.14834"], ["101"], ["1.39109", "0.00032"]], [["328.15"], ["0.1994"], ["101"], ["1.3971", "0.00032"]], [["328.15"], ["0.30511"], ["101"], ["1.40629", "0.00034"]], [["328.15"], ["0.39515"], ["101"], ["1.41212", "0.00035"]], [["328.15"], ["0.49028"], ["101"], ["1.41627", "0.00037"]], [["328.15"], ["0.608"], ["101"], ["1.41891", "0.0004"]], [["328.15"], ["0.69535"], ["101"], ["1.42084", "0.00042"]], [["328.15"], ["0.79941"], ["101"], ["1.42264", "0.00045"]], [["328.15"], ["0.84121"], ["101"], ["1.42347", "0.00046"]], [["328.15"], ["0.88772"], ["101"], ["1.42394", "0.00047"]], [["328.15"], ["0.93994"], ["101"], ["1.42452", "0.00049"]], [["328.15"], ["1"], ["101"], ["1.42494", "0.00051"]], [["338.15"], ["0"], ["101"], ["1.32581", "0.00031"]], [["338.15"], ["0.04954"], ["101"], ["1.35943", "0.00031"]], [["338.15"], ["0.0999"], ["101"], ["1.37739", "0.00032"]], [["338.15"], ["0.14834"], ["101"], ["1.38829", "0.00032"]], [["338.15"], ["0.1994"], ["101"], ["1.39415", "0.00032"]], [["338.15"], ["0.30511"], ["101"], ["1.40338", "0.00034"]], [["338.15"], ["0.39515"], ["101"], ["1.40853", "0.00035"]], [["338.15"], ["0.49028"], ["101"], ["1.41302", "0.00037"]], [["338.15"], ["0.608"], ["101"], ["1.41621", "0.0004"]], [["338.15"], ["0.69535"], ["101"], ["1.41807", "0.00042"]], [["338.15"], ["0.79941"], ["101"], ["1.41989", "0.00045"]], [["338.15"], ["0.84121"], ["101"], ["1.42083", "0.00046"]], [["338.15"], ["0.88772"], ["101"], ["1.42121", "0.00047"]], [["338.15"], ["0.93994"], ["101"], ["1.42181", "0.00049"]], [["338.15"], ["1"], ["101"], ["1.42222", "0.00051"]]], "solvent": null, "expmeth": "Standard Abbe refractometry", "ref": {"title": "Refractive Indices and Deviations in Refractive Indices of Trifluoromethanesulfonate-Based Ionic Liquids in Water", "full": "Vercher, E.; Llopis, F. J.; Gonzalez-Alfaro, V.; Miguel, P. J.; Martinez-Andreu, A. (2011) J. Chem. Eng. Data 56(12), 4499-4504."}, "constr": [], "phases": ["Liquid"]}