{"expmeth": "Standard Abbe refractometry", "data": [[["298.15"], ["101.325"], ["1.4741", "0.0009"]], [["303.15"], ["101.325"], ["1.4739", "0.0009"]], [["308.15"], ["101.325"], ["1.4735", "0.0009"]], [["313.15"], ["101.325"], ["1.4721", "0.0009"]], [["318.15"], ["101.325"], ["1.4716", "0.0009"]], [["323.15"], ["101.325"], ["1.4706", "0.0009"]], [["328.15"], ["101.325"], ["1.4702", "0.0009"]], [["333.15"], ["101.325"], ["1.4698", "0.0009"]]], "solvent": null, "footer": "", "dhead": [["Temperature, K", null], ["Pressure, kPa", null], ["Refractive index (Na D-line)", "Liquid"]], "components": [{"name": "1-ethyl-3-methylimidazolium methyl sulfate", "formula": "C<SUB>7</SUB>H<SUB>14</SUB>N<SUB>2</SUB>O<SUB>4</SUB>S", "mw": "222.26", "idout": "AAqmVN", "sample": [["Source:", "commercial source"], ["Purification:", "stated by supplier"], ["Purity:", "98 % (basis not specified)"]]}], "title": "Refraction, surface tension, and speed of sound: Refractive index (Na D-line)", "phases": ["Liquid"], "ref": {"full": "AlTuwaim, M. S.; Alkhaldi, K. H. A. E.; Al-Jimaz, A. S.; Mohammad, A. A. (2014) J. Chem. Eng. Data 59(6), 1955-1963.", "title": "Temperature Dependence of Physicochemical Properties of Imidazolium-, Pyroldinium-, and Phosphonium-Based Ionic Liquids"}, "constr": []}