{"components": [{"sample": [["Source:", "synthesized by the authors"], ["Purification:", "estimated by the compiler"], ["Purity:", "99 mass %(dried by vacuum heating)"]], "idout": "ABESvp", "mw": "293.09", "formula": "C<SUB>10</SUB>H<SUB>14</SUB>BF<SUB>2</SUB>NO<SUB>4</SUB>S", "name": "3-butyl-4-methylthiazolium difluoro(oxalato)borate"}], "title": "Refraction, surface tension, and speed of sound: Refractive index (Na D-line)", "dhead": [["Temperature, K", null], ["Pressure, kPa", null], ["Refractive index (Na D-line)", "Liquid"]], "data": [[["283.15"], ["101.325"], ["1.4901", "0.0005"]], [["293.15"], ["101.325"], ["1.4865", "0.0005"]], [["298.15"], ["101.325"], ["1.485", "0.0005"]], [["303.15"], ["101.325"], ["1.4836", "0.0005"]], [["313.15"], ["101.325"], ["1.4798", "0.0005"]], [["323.15"], ["101.325"], ["1.4765", "0.0005"]], [["333.15"], ["101.325"], ["1.4729", "0.0005"]], [["343.15"], ["101.325"], ["1.4698", "0.0005"]], [["353.15"], ["101.325"], ["1.466", "0.0005"]]], "solvent": null, "footer": "", "expmeth": "Standard Abbe refractometry", "constr": [], "ref": {"full": "Fei, Y.; Chen, Z.; Zhang, J.; Yu, M.; Kong, J.; Wu, Z.; Cao, J.; Zhang, J. (2021) J. Mol. Liq. 342, 117553.", "title": "Thiazolium-based ionic liquids: Synthesis, characterization and physicochemical properties"}, "phases": ["Liquid"]}