{"constr": [], "ref": {"full": "Alkhaldi, K. H. A. E.; Al-Jimaz, A. S.; AlTuwaim, M. S. (2017) J. Chem. Thermodyn. 110, 175-185.", "title": "Comparative study of physical properties of binary mixtures of halogen free ionic liquids with alcohols"}, "phases": ["Liquid"], "components": [{"sample": [["Source:", "commercial source"], ["Initial purification:", "stated by supplier"], ["Initial purity:", "99.8 mass %"], ["Final purification:", "Karl Fischer titration"], ["Final purity:", "0.0030 water mass %"]], "mw": "74.12", "idout": "AAONVE", "name": "butan-1-ol", "formula": "C<SUB>4</SUB>H<SUB>10</SUB>O"}, {"mw": "208.23", "idout": "AAoCnc", "name": "1,3-dimethylimidazolium methylsulfate", "formula": "C<SUB>6</SUB>H<SUB>12</SUB>N<SUB>2</SUB>O<SUB>4</SUB>S", "sample": [["Source:", "commercial source"], ["Initial purification:", "stated by supplier"], ["Initial purity:", "97 mass %"], ["Final purification:", "Karl Fischer titration"], ["Final purity:", "0.0620 water mass %"]]}], "title": "Refraction, surface tension, and speed of sound: Refractive index (Na D-line)", "dhead": [["Temperature, K", null], ["Mole fraction of 1,3-dimethylimidazolium methylsulfate", "Liquid"], ["Pressure, kPa", null], ["Refractive index (Na D-line)", "Liquid"]], "data": [[["298"], ["0"], ["101.3"], ["1.397", "0.01"]], [["298"], ["0.063"], ["101.3"], ["1.405", "0.01"]], [["298"], ["0.221"], ["101.3"], ["1.421", "0.01"]], [["298"], ["0.432"], ["101.3"], ["1.443", "0.01"]], [["298"], ["0.64"], ["101.3"], ["1.46", "0.01"]], [["298"], ["0.781"], ["101.3"], ["1.47", "0.01"]], [["298"], ["0.927"], ["101.3"], ["1.479", "0.01"]], [["298"], ["1"], ["101.3"], ["1.483", "0.01"]], [["303"], ["0"], ["101.3"], ["1.395", "0.01"]], [["303"], ["0.063"], ["101.3"], ["1.401", "0.01"]], [["303"], ["0.221"], ["101.3"], ["1.418", "0.01"]], [["303"], ["0.432"], ["101.3"], ["1.439", "0.01"]], [["303"], ["0.64"], ["101.3"], ["1.457", "0.01"]], [["303"], ["0.781"], ["101.3"], ["1.468", "0.01"]], [["303"], ["0.927"], ["101.3"], ["1.477", "0.01"]], [["303"], ["1"], ["101.3"], ["1.481", "0.01"]], [["308"], ["0"], ["101.3"], ["1.392", "0.01"]], [["308"], ["0.063"], ["101.3"], ["1.398", "0.01"]], [["308"], ["0.221"], ["101.3"], ["1.414", "0.01"]], [["308"], ["0.432"], ["101.3"], ["1.435", "0.01"]], [["308"], ["0.64"], ["101.3"], ["1.454", "0.01"]], [["308"], ["0.781"], ["101.3"], ["1.465", "0.01"]], [["308"], ["0.927"], ["101.3"], ["1.475", "0.01"]], [["308"], ["1"], ["101.3"], ["1.48", "0.01"]], [["313"], ["0"], ["101.3"], ["1.389", "0.01"]], [["313"], ["0.063"], ["101.3"], ["1.395", "0.01"]], [["313"], ["0.221"], ["101.3"], ["1.41", "0.01"]], [["313"], ["0.432"], ["101.3"], ["1.431", "0.01"]], [["313"], ["0.64"], ["101.3"], ["1.45", "0.01"]], [["313"], ["0.781"], ["101.3"], ["1.461", "0.01"]], [["313"], ["0.927"], ["101.3"], ["1.472", "0.01"]], [["313"], ["1"], ["101.3"], ["1.479", "0.01"]]], "solvent": null, "footer": "", "expmeth": "Standard Abbe refractometry"}