{"ref": {"full": "Shekaari, H.; Zafarani-Moattar, M. T.; Behrooz, N. J. (2015) J. Chem. Thermodyn. 86, 188-195.", "title": "Volumetric, acoustic, and refractometric properties of (thiophene + hexane/cyclohexane) solutions in the presence of some imidazolium based ionic liquids at T = 298.15 K"}, "constr": [], "phases": ["Liquid"], "components": [{"formula": "C<SUB>4</SUB>H<SUB>4</SUB>S", "name": "thiophene", "idout": "AAQJSl", "mw": "84.14", "sample": [["Source:", "commercial source"], ["Purification:", "stated by supplier"], ["Purity:", "99 mass %"], ["Purity analysis:", "none used"]]}, {"idout": "AAQdzy", "mw": "86.18", "formula": "C<SUB>6</SUB>H<SUB>14</SUB>", "name": "hexane", "sample": [["Source:", "commercial source"], ["Purification:", "stated by supplier"], ["Purity:", "95 mass %"], ["Purity analysis:", "none used"]]}, {"sample": [["Source:", "synthesized by the authors"], ["Purification:", "estimated by the compiler;Karl Fischer titration"], ["Purity:", "99 mass %;0.1 water mass %(dried by vacuum heating;solvent extraction)"]], "idout": "AAvbcc", "mw": "247.18", "name": "1-hexyl-3-methyl-1H-imidazolium bromide", "formula": "C<SUB>10</SUB>H<SUB>19</SUB>BrN<SUB>2</SUB>"}], "title": "Refraction, surface tension, and speed of sound: Refractive index (Na D-line)", "dhead": [["MolaLity of thiophene, mol/kg", "Liquid"], ["Temperature, K", null], ["Pressure, kPa", null], ["Solvent: MolaLity of 1-hexyl-3-methyl-1H-imidazolium bromide, mol/kg", "Liquid"], ["Refractive index (Na D-line)", "Liquid"]], "data": [[["0"], ["298.15"], ["101.33"], ["0.1"], ["1.3737", "0.0007"]], [["0.0462"], ["298.15"], ["101.33"], ["0.1"], ["1.3741", "0.0007"]], [["0.0612"], ["298.15"], ["101.33"], ["0.1"], ["1.3743", "0.0007"]], [["0.0761"], ["298.15"], ["101.33"], ["0.1"], ["1.3745", "0.0007"]], [["0.091"], ["298.15"], ["101.33"], ["0.1"], ["1.3747", "0.0007"]], [["0.1064"], ["298.15"], ["101.33"], ["0.1"], ["1.3749", "0.0007"]], [["0.1213"], ["298.15"], ["101.33"], ["0.1"], ["1.3751", "0.0007"]], [["0.1362"], ["298.15"], ["101.33"], ["0.1"], ["1.3753", "0.0007"]], [["0.1513"], ["298.15"], ["101.33"], ["0.1"], ["1.3755", "0.0007"]], [["0.166"], ["298.15"], ["101.33"], ["0.1"], ["1.3757", "0.0007"]], [["0.1812"], ["298.15"], ["101.33"], ["0.1"], ["1.3759", "0.0007"]], [["0.1958"], ["298.15"], ["101.33"], ["0.1"], ["1.3761", "0.0007"]]], "solvent": "hexane + 1-hexyl-3-methyl-1H-imidazolium bromide", "footer": "", "expmeth": "Standard Abbe refractometry"}