{"ref": {"full": "Bai, L.; Li, S.-N.; Zhai, Q.-G.; Jiang, Y.-C.; Hu, M.-C. (2016) Chem. Eng. Commun. 203(7), 985-993.", "title": "Study of the Physicochemical and Excess Properties of Binary Systems Composed of Ionic Liquids ([Cnmim]Cl,n = 6, 8) and Three Dipolar Aprotic Solvents atT = 288.15-333.15 K"}, "constr": [], "phases": ["Liquid"], "title": "Refraction, surface tension, and speed of sound: Refractive index (Na D-line)", "components": [{"sample": [["Source:", "commercial source"], ["Initial purification:", "estimated by the compiler"], ["Initial purity:", "99 mass %"], ["Final purification:", "Karl Fischer titration"], ["Final purity:", "0.30 water mass %(de-gassed by boiling or ultrasonically;dried by vacuum heating)"]], "idout": "AAsTjr", "mw": "230.78", "name": "1-methyl-3-octylimidazolium chloride", "formula": "C<SUB>12</SUB>H<SUB>23</SUB>ClN<SUB>2</SUB>"}, {"idout": "AAYhfK", "mw": "128.18", "name": "1,3-dimethyl-3,4,5,6-tetrahydro-2(1H)-pyrimidinone", "formula": "C<SUB>6</SUB>H<SUB>12</SUB>N<SUB>2</SUB>O", "sample": [["Source:", "commercial source"], ["Initial purification:", "stated by supplier"], ["Initial purity:", "99 mass %"], ["Final purification:", "Karl Fischer titration"], ["Final purity:", "0.30 water mass %(molecular sieve treatment)"]]}], "dhead": [["Temperature, K", null], ["Mole fraction of 1-methyl-3-octylimidazolium chloride", "Liquid"], ["Pressure, kPa", null], ["Refractive index (Na D-line)", "Liquid"]], "footer": "", "data": [[["288.15"], ["0"], ["100"], ["1.49262", "0.00037"]], [["288.15"], ["0.0999"], ["100"], ["1.49651", "0.00037"]], [["288.15"], ["0.1998"], ["100"], ["1.49978", "0.00037"]], [["288.15"], ["0.2997"], ["100"], ["1.50269", "0.00037"]], [["288.15"], ["0.4004"], ["100"], ["1.50491", "0.00037"]], [["288.15"], ["0.4993"], ["100"], ["1.50648", "0.00037"]], [["288.15"], ["0.5981"], ["100"], ["1.50777", "0.00037"]], [["288.15"], ["0.6984"], ["100"], ["1.50879", "0.00037"]], [["288.15"], ["0.7997"], ["100"], ["1.50952", "0.00037"]], [["288.15"], ["0.9003"], ["100"], ["1.51021", "0.00037"]], [["288.15"], ["1"], ["100"], ["1.5089", "0.00037"]], [["293.15"], ["0"], ["100"], ["1.49007", "0.00037"]], [["293.15"], ["0.0999"], ["100"], ["1.49414", "0.00037"]], [["293.15"], ["0.1998"], ["100"], ["1.49758", "0.00037"]], [["293.15"], ["0.2997"], ["100"], ["1.50088", "0.00037"]], [["293.15"], ["0.4004"], ["100"], ["1.50308", "0.00037"]], [["293.15"], ["0.4993"], ["100"], ["1.50472", "0.00037"]], [["293.15"], ["0.5981"], ["100"], ["1.50602", "0.00037"]], [["293.15"], ["0.6984"], ["100"], ["1.5071", "0.00037"]], [["293.15"], ["0.7997"], ["100"], ["1.50786", "0.00037"]], [["293.15"], ["0.9003"], ["100"], ["1.50856", "0.00037"]], [["293.15"], ["1"], ["100"], ["1.50774", "0.00037"]], [["298.15"], ["0"], ["100"], ["1.48794", "0.00037"]], [["298.15"], ["0.0999"], ["100"], ["1.49216", "0.00037"]], [["298.15"], ["0.1998"], ["100"], ["1.49564", "0.00037"]], [["298.15"], ["0.2997"], ["100"], ["1.49915", "0.00037"]], [["298.15"], ["0.4004"], ["100"], ["1.50126", "0.00037"]], [["298.15"], ["0.4993"], ["100"], ["1.50299", "0.00037"]], [["298.15"], ["0.5981"], ["100"], ["1.50435", "0.00037"]], [["298.15"], ["0.6984"], ["100"], ["1.50544", "0.00037"]], [["298.15"], ["0.7997"], ["100"], ["1.50626", "0.00037"]], [["298.15"], ["0.9003"], ["100"], ["1.50697", "0.00037"]], [["298.15"], ["1"], ["100"], ["1.50618", "0.00037"]], [["303.15"], ["0"], ["100"], ["1.48586", "0.00037"]], [["303.15"], ["0.0999"], ["100"], ["1.49016", "0.00037"]], [["303.15"], ["0.1998"], ["100"], ["1.49375", "0.00037"]], [["303.15"], ["0.2997"], ["100"], ["1.49719", "0.00037"]], [["303.15"], ["0.4004"], ["100"], ["1.4995", "0.00037"]], [["303.15"], ["0.4993"], ["100"], ["1.50126", "0.00037"]], [["303.15"], ["0.5981"], ["100"], ["1.50266", "0.00037"]], [["303.15"], ["0.6984"], ["100"], ["1.5038", "0.00037"]], [["303.15"], ["0.7997"], ["100"], ["1.50465", "0.00037"]], [["303.15"], ["0.9003"], ["100"], ["1.50538", "0.00037"]], [["303.15"], ["1"], ["100"], ["1.50501", "0.00037"]], [["308.15"], ["0"], ["100"], ["1.48378", "0.00037"]], [["308.15"], ["0.0999"], ["100"], ["1.48823", "0.00037"]], [["308.15"], ["0.1998"], ["100"], ["1.49192", "0.00037"]], [["308.15"], ["0.2997"], ["100"], ["1.4954", "0.00037"]], [["308.15"], ["0.4004"], ["100"], ["1.49774", "0.00037"]], [["308.15"], ["0.4993"], ["100"], ["1.49956", "0.00037"]], [["308.15"], ["0.5981"], ["100"], ["1.50098", "0.00037"]], [["308.15"], ["0.6984"], ["100"], ["1.50215", "0.00037"]], [["308.15"], ["0.7997"], ["100"], ["1.50304", "0.00037"]], [["308.15"], ["0.9003"], ["100"], ["1.50381", "0.00037"]], [["308.15"], ["1"], ["100"], ["1.50366", "0.00037"]], [["313.15"], ["0"], ["100"], ["1.48173", "0.00037"]], [["313.15"], ["0.0999"], ["100"], ["1.48629", "0.00037"]], [["313.15"], ["0.1998"], ["100"], ["1.49003", "0.00037"]], [["313.15"], ["0.2997"], ["100"], ["1.49354", "0.00037"]], [["313.15"], ["0.4004"], ["100"], ["1.49601", "0.00037"]], [["313.15"], ["0.4993"], ["100"], ["1.49786", "0.00037"]], [["313.15"], ["0.5981"], ["100"], ["1.49933", "0.00037"]], [["313.15"], ["0.6984"], ["100"], ["1.50051", "0.00037"]], [["313.15"], ["0.7997"], ["100"], ["1.50145", "0.00037"]], [["313.15"], ["0.9003"], ["100"], ["1.50223", "0.00037"]], [["313.15"], ["1"], ["100"], ["1.5023", "0.00037"]], [["318.15"], ["0"], ["100"], ["1.47964", "0.00037"]], [["318.15"], ["0.0999"], ["100"], ["1.48434", "0.00037"]], [["318.15"], ["0.1998"], ["100"], ["1.48825", "0.00037"]], [["318.15"], ["0.2997"], ["100"], ["1.49175", "0.00037"]], [["318.15"], ["0.4004"], ["100"], ["1.49426", "0.00037"]], [["318.15"], ["0.4993"], ["100"], ["1.4962", "0.00037"]], [["318.15"], ["0.5981"], ["100"], ["1.49768", "0.00037"]], [["318.15"], ["0.6984"], ["100"], ["1.4989", "0.00037"]], [["318.15"], ["0.7997"], ["100"], ["1.49989", "0.00037"]], [["318.15"], ["0.9003"], ["100"], ["1.50067", "0.00037"]], [["318.15"], ["1"], ["100"], ["1.50077", "0.00037"]], [["323.15"], ["0"], ["100"], ["1.47776", "0.00037"]], [["323.15"], ["0.0999"], ["100"], ["1.48253", "0.00037"]], [["323.15"], ["0.1998"], ["100"], ["1.48649", "0.00037"]], [["323.15"], ["0.2997"], ["100"], ["1.48986", "0.00037"]], [["323.15"], ["0.4004"], ["100"], ["1.49259", "0.00037"]], [["323.15"], ["0.4993"], ["100"], ["1.49457", "0.00037"]], [["323.15"], ["0.5981"], ["100"], ["1.49613", "0.00037"]], [["323.15"], ["0.6984"], ["100"], ["1.49735", "0.00037"]], [["323.15"], ["0.7997"], ["100"], ["1.49838", "0.00037"]], [["323.15"], ["0.9003"], ["100"], ["1.49921", "0.00037"]], [["323.15"], ["1"], ["100"], ["1.49937", "0.00037"]], [["328.15"], ["0"], ["100"], ["1.47644", "0.00037"]], [["328.15"], ["0.0999"], ["100"], ["1.48121", "0.00037"]], [["328.15"], ["0.1998"], ["100"], ["1.48512", "0.00037"]], [["328.15"], ["0.2997"], ["100"], ["1.48846", "0.00037"]], [["328.15"], ["0.4004"], ["100"], ["1.49126", "0.00037"]], [["328.15"], ["0.4993"], ["100"], ["1.49332", "0.00037"]], [["328.15"], ["0.5981"], ["100"], ["1.49483", "0.00037"]], [["328.15"], ["0.6984"], ["100"], ["1.49629", "0.00037"]], [["328.15"], ["0.7997"], ["100"], ["1.49716", "0.00037"]], [["328.15"], ["0.9003"], ["100"], ["1.49803", "0.00037"]], [["328.15"], ["1"], ["100"], ["1.49816", "0.00037"]], [["333.15"], ["0"], ["100"], ["1.47492", "0.00037"]], [["333.15"], ["0.0999"], ["100"], ["1.47999", "0.00037"]], [["333.15"], ["0.1998"], ["100"], ["1.48407", "0.00037"]], [["333.15"], ["0.2997"], ["100"], ["1.48734", "0.00037"]], [["333.15"], ["0.4004"], ["100"], ["1.49007", "0.00037"]], [["333.15"], ["0.4993"], ["100"], ["1.49216", "0.00037"]], [["333.15"], ["0.5981"], ["100"], ["1.49363", "0.00037"]], [["333.15"], ["0.6984"], ["100"], ["1.49499", "0.00037"]], [["333.15"], ["0.7997"], ["100"], ["1.49623", "0.00037"]], [["333.15"], ["0.9003"], ["100"], ["1.49699", "0.00037"]], [["333.15"], ["1"], ["100"], ["1.49651", "0.00037"]]], "solvent": null, "expmeth": "Standard Abbe refractometry"}