{"ref": {"title": "Experimental, theoretical and spectroscopic analysis of molecular interactions in binary liquid mixtures comprising ionic liquid and alkyl cellosolves", "full": "Devi, Pooja; Rani, Pooja; Kataria, Jyoti (2024) J. Taiwan Inst. Chem. Eng. 159, 105468."}, "constr": [], "phases": ["Liquid"], "title": "Refraction, surface tension, and speed of sound: Refractive index (Na D-line)", "components": [{"sample": [["Source:", "synthesized by the authors"], ["Purification:", "Karl Fischer titration"], ["Purity:", "5 water mass %(dried by vacuum heating)"]], "formula": "C<SUB>8</SUB>H<SUB>15</SUB>BrN<SUB>2</SUB>", "name": "1-butyl-3-methylimidazolium bromide", "mw": "219.13", "idout": "AAqHiH"}], "dhead": [["Temperature, K", null], ["Pressure, kPa", null], ["Refractive index (Na D-line)", "Liquid"]], "footer": "", "data": [[["298.15"], ["101.325"], ["1.5452", "0.0023"]], [["303.15"], ["101.325"], ["1.5441", "0.0023"]], [["308.15"], ["101.325"], ["1.5421", "0.0023"]], [["313.15"], ["101.325"], ["1.5413", "0.0023"]]], "solvent": null, "expmeth": "Standard Abbe refractometry"}