{"ref": {"title": "Preliminary study of new electrolytes based on [MPPyr][TFSI] for lithium ion batteries", "full": "Garca-Garabal, S.; Domnguez-Prez, M.; Portela, D.; Varela, L. M.; Cabeza, O. (2022) J. Mol. Liq. 363, 119758."}, "constr": [], "phases": ["Liquid"], "components": [{"mw": "408.37", "idout": "ABabds", "formula": "C<SUB>10</SUB>H<SUB>18</SUB>F<SUB>6</SUB>N<SUB>2</SUB>O<SUB>4</SUB>S<SUB>2</SUB>", "name": "1-methyl-1-propylpyrrolidinium bis[(trifluoromethyl)sulfonyl]imide", "sample": [["Source:", "commercial source"], ["Purification:", "stated by supplier"], ["Purity:", "99 % (basis not specified)"]]}, {"sample": [["Source:", "commercial source"], ["Purification:", "stated by supplier"], ["Purity:", "99.9 % (basis not specified)"]], "formula": "C<SUB>2</SUB>H<SUB>6</SUB>OS", "name": "dimethyl sulfoxide", "mw": "78.13", "idout": "AAPByN"}], "title": "Refraction, surface tension, and speed of sound: Refractive index (Na D-line)", "dhead": [["Weight fraction of 1-methyl-1-propylpyrrolidinium bis[(trifluoromethyl)sulfonyl]imide", "Liquid"], ["Temperature, K", null], ["Pressure, kPa", null], ["Refractive index (Na D-line)", "Liquid"]], "data": [[["0.25"], ["298.15"], ["101"], ["1.46342", "0.00058"]], [["0.5"], ["298.15"], ["101"], ["1.44933", "0.00059"]], [["0.75"], ["298.15"], ["101"], ["1.43513", "0.0006"]]], "solvent": null, "footer": "", "expmeth": "Standard Abbe refractometry"}