{"ref": {"title": "Effect of 1-Butyl-3-methylimidazolium Ibuprofenate as an Active Pharmaceutical Ingredient Ionic Liquid (API-IL) on the Thermodynamic Properties of Glycine and L-Alanine in Aqueous Solutions at Different Temperatures", "full": "Shekaari, H.; Zafarani-Moattar, M. T.; Mirheydari, S. N. (2016) J. Solution Chem. 45, 624-663."}, "constr": [], "phases": ["Liquid"], "title": "Refraction, surface tension, and speed of sound: Refractive index (Na D-line)", "components": [{"mw": "18.02", "idout": "AADYJk", "name": "water", "formula": "H<SUB>2</SUB>O", "sample": [["Source:", "synthesized by the authors"], ["Purification:", "estimated by the compiler"], ["Purity:", "99.9 mol %(de-gassed by boiling or ultrasonically;fractional distillation)"]]}, {"sample": [["Source:", "synthesized by the authors"], ["Initial purification:", "estimated by the compiler"], ["Initial purity:", "98 mass %"], ["Final purification:", "Karl Fischer titration"], ["Final purity:", "0.05 water mass %"]], "mw": "344.50", "idout": "ABOMSG", "formula": "C<SUB>21</SUB>H<SUB>32</SUB>N<SUB>2</SUB>O<SUB>2</SUB>", "name": "1-butyl-3-methylimidazolium ibuprofenate"}], "dhead": [["Temperature, K", null], ["MolaLity of 1-butyl-3-methylimidazolium ibuprofenate, mol/kg", "Liquid"], ["Pressure, kPa", null], ["Refractive index (Na D-line)", "Liquid"]], "footer": "", "data": [[["288.15"], ["0.1109"], ["86.8"], ["1.3408", "0.0016"]], [["288.15"], ["0.111"], ["86.8"], ["1.3404", "0.0016"]], [["288.15"], ["0.18"], ["86.8"], ["1.3452", "0.0016"]], [["288.15"], ["0.1801"], ["86.8"], ["1.3452", "0.0016"]], [["288.15"], ["0.26"], ["86.8"], ["1.3503", "0.0017"]], [["288.15"], ["0.264"], ["86.8"], ["1.3504", "0.0017"]], [["298.15"], ["0.1109"], ["86.8"], ["1.3396", "0.0016"]], [["298.15"], ["0.111"], ["86.8"], ["1.3398", "0.0016"]], [["298.15"], ["0.18"], ["86.8"], ["1.3447", "0.0016"]], [["298.15"], ["0.1801"], ["86.8"], ["1.3447", "0.0016"]], [["298.15"], ["0.26"], ["86.8"], ["1.3495", "0.0016"]], [["298.15"], ["0.264"], ["86.8"], ["1.35", "0.0016"]], [["308.15"], ["0.1109"], ["86.8"], ["1.338", "0.0016"]], [["308.15"], ["0.111"], ["86.8"], ["1.3382", "0.0016"]], [["308.15"], ["0.18"], ["86.8"], ["1.3426", "0.0016"]], [["308.15"], ["0.1801"], ["86.8"], ["1.3427", "0.0016"]], [["308.15"], ["0.26"], ["86.8"], ["1.3478", "0.0017"]], [["308.15"], ["0.264"], ["86.8"], ["1.348", "0.0017"]], [["318.15"], ["0.1109"], ["86.8"], ["1.3369", "0.0016"]], [["318.15"], ["0.18"], ["86.8"], ["1.3415", "0.0016"]], [["318.15"], ["0.1801"], ["86.8"], ["1.3416", "0.0016"]], [["318.15"], ["0.26"], ["86.8"], ["1.3466", "0.0017"]], [["318.15"], ["0.264"], ["86.8"], ["1.3467", "0.0017"]]], "solvent": "water", "expmeth": "Standard Abbe refractometry"}