{"ref": {"full": "Soriano, A. N.; Doma Jr., B. T.; Li, M. -H. (2009) J. Chem. Thermodyn. 41(3), 301-307.", "title": "Measurements of the density and refractive index for 1-n-butyl-3-methylimidazolium-based ionic liquids"}, "constr": [], "phases": ["Liquid"], "title": "Refraction, surface tension, and speed of sound: Refractive index (Na D-line)", "components": [{"sample": [["Source:", "commercial source"], ["Purification:", "stated by supplier"], ["Purity:", "98 mass %"], ["Purity analysis:", "none used"]], "name": "1-butyl-3-methylimidazolium methyl sulfate", "formula": "C<SUB>9</SUB>H<SUB>18</SUB>N<SUB>2</SUB>O<SUB>4</SUB>S", "mw": "250.31", "idout": "AAwHNg"}], "dhead": [["Temperature, K", null], ["Pressure, kPa", null], ["Refractive index (Na D-line)", "Liquid"]], "footer": "", "data": [[["298.2"], ["101.325"], ["1.4792", "0.0008"]], [["299.2"], ["101.325"], ["1.4789", "0.0008"]], [["300.2"], ["101.325"], ["1.4787", "0.0008"]], [["301.2"], ["101.325"], ["1.4784", "0.0008"]], [["302.2"], ["101.325"], ["1.4782", "0.0008"]], [["303.2"], ["101.325"], ["1.4779", "0.0008"]], [["304.2"], ["101.325"], ["1.4776", "0.0008"]], [["305.2"], ["101.325"], ["1.4774", "0.0008"]], [["306.2"], ["101.325"], ["1.4771", "0.0008"]], [["307.2"], ["101.325"], ["1.4768", "0.0008"]], [["308.2"], ["101.325"], ["1.4766", "0.0008"]]], "solvent": null, "expmeth": "Standard Abbe refractometry"}