{"constr": [], "ref": {"title": "Conductometric, refractometric and FT-IR spectroscopic study of [EMIm]NO3, [EMIm]CH3SO3, and [EMIm]OTs in N,N-dimethyl formamide, N,N-dimethyl acetamide and dimethyl sulphoxide", "full": "Roy, M. N.; Roy, M. C.; Choudhury, S.; Roy, P. K.; Dewan, R. (2015) Thermochim. Acta 599, 27-34."}, "phases": ["Liquid"], "title": "Refraction, surface tension, and speed of sound: Refractive index (Na D-line)", "components": [{"formula": "C<SUB>3</SUB>H<SUB>7</SUB>NO", "name": "dimethylformamide", "mw": "73.09", "idout": "AAOCWD", "sample": [["Source:", "commercial source"], ["Purification:", "stated by supplier"], ["Purity:", "99 mass %"], ["Purity analysis:", "none used"]]}, {"name": "1-ethyl-3-methylimidazolium 4-methylbenzenesulfonate", "formula": "C<SUB>13</SUB>H<SUB>18</SUB>N<SUB>2</SUB>O<SUB>3</SUB>S", "mw": "282.36", "idout": "ABCPbo", "sample": [["Source:", "commercial source"], ["Purification:", "stated by supplier"], ["Purity:", "98 mass %"], ["Purity analysis:", "dried in a desiccator"]]}], "dhead": [["MolaLity of 1-ethyl-3-methylimidazolium 4-methylbenzenesulfonate, mol/kg", "Liquid"], ["Temperature, K", null], ["Pressure, kPa", null], ["Refractive index (Na D-line)", "Liquid"]], "footer": "", "data": [[["0.0533"], ["298.15"], ["101"], ["1.4323", "0.0005"]]], "solvent": "dimethylformamide", "expmeth": "Standard Abbe refractometry"}