{"ref": {"title": "Density, sound velocity, viscosity, and refractive index of new morpholinium ionic liquids with amino acid-based anions: Effect of temperature, alkyl chain length, and anion", "full": "Marcinkowski, L.; Szepinski, E.; Milewska, M. J.; Kloskowski, A. (2019) J. Mol. Liq. 284, 557-568."}, "constr": [], "phases": ["Liquid"], "title": "Refraction, surface tension, and speed of sound: Refractive index (Na D-line)", "components": [{"sample": [["Source:", "synthesized by the authors"], ["Purification:", "spectroscopy;Karl Fischer titration;ion chromatography"], ["Purity:", "99.5 mass %;0.45 water mass %;0.015 halide impurity mass %(crystallization from solution;dried by vacuum heating)"]], "formula": "C<SUB>19</SUB>H<SUB>38</SUB>N<SUB>2</SUB>O<SUB>4</SUB>", "name": "N-hexyl-N-methylmorpholinium N-acetyl-L-leucinate", "mw": "358.52", "idout": "ABQxBO"}], "dhead": [["Temperature, K", null], ["Pressure, kPa", null], ["Refractive index (Na D-line)", "Liquid"]], "footer": "", "data": [[["298.15"], ["101.325"], ["1.4818", "0.0005"]], [["303.15"], ["101.325"], ["1.4805", "0.0005"]], [["308.15"], ["101.325"], ["1.4791", "0.0005"]], [["313.15"], ["101.325"], ["1.4772", "0.0005"]], [["318.15"], ["101.325"], ["1.4758", "0.0005"]]], "solvent": null, "expmeth": "Standard Abbe refractometry"}