{"title": "Refraction, surface tension, and speed of sound: Refractive index (Na D-line)", "components": [{"name": "N-3-hydroxypropyl-N,N-dimethyl-N-ethylammonium bis(trifluoromethanesulfonyl)amide", "formula": "C<SUB>9</SUB>H<SUB>18</SUB>F<SUB>6</SUB>N<SUB>2</SUB>O<SUB>5</SUB>S<SUB>2</SUB>", "idout": "ABbPMI", "mw": "412.36", "sample": [["Source:", "synthesized by the authors"], ["Purification:", "NMR (proton)"], ["Purity:", "99 mass %"]]}], "dhead": [["Temperature, K", null], ["Pressure, kPa", null], ["Refractive index (Na D-line)", "Liquid"]], "footer": "", "data": [[["283.15"], ["100"], ["1.4253", "0.0017"]], [["288.15"], ["100"], ["1.4241", "0.0017"]], [["293.15"], ["100"], ["1.4228", "0.0017"]], [["298.15"], ["100"], ["1.4215", "0.0017"]], [["303.15"], ["100"], ["1.4203", "0.0017"]], [["308.15"], ["100"], ["1.419", "0.0017"]], [["313.15"], ["100"], ["1.4176", "0.0017"]], [["318.15"], ["100"], ["1.4164", "0.0017"]], [["323.15"], ["100"], ["1.4151", "0.0017"]], [["328.15"], ["100"], ["1.4139", "0.0017"]], [["333.15"], ["100"], ["1.4126", "0.0017"]], [["338.15"], ["100"], ["1.4114", "0.0017"]], [["343.15"], ["100"], ["1.4101", "0.0017"]], [["348.15"], ["100"], ["1.4089", "0.0017"]], [["353.15"], ["100"], ["1.4076", "0.0017"]], [["358.15"], ["100"], ["1.4064", "0.0017"]]], "solvent": null, "expmeth": "Standard Abbe refractometry", "ref": {"title": "Evidences for a Null Molar Volume Contribution by Hydroxyl Groups in Ammonium Bistriflimide-Based Ionic Liquids", "full": "de Ferro, A. M.; Reis, P. M.; Freitas, A. A.; Lopes, J. N. C.; Rebelo, L. P. N.; Shimizu, K.; Esperanca, J. M. S. S. (2019) J. Chem. Eng. Data 64(11), 4932-4945."}, "constr": [], "phases": ["Liquid"]}