{"constr": [], "ref": {"title": "New levulinic acid-based deep eutectic solvents: Synthesis and physicochemical property determination", "full": "Li, G.; Jiang, Y.; Liu, X.; Deng, D. (2016) J. Mol. Liq. 222, 201-207."}, "phases": ["Liquid"], "components": [{"sample": [["Source:", "commercial source"], ["Purification:", "stated by supplier"], ["Purity:", "98 mass %"]], "idout": "AAftPF", "mw": "165.71", "name": "tetraethylammonium chloride", "formula": "C<SUB>8</SUB>H<SUB>20</SUB>ClN"}, {"idout": "AAWRqX", "mw": "116.12", "name": "4-oxopentanoic acid", "formula": "C<SUB>5</SUB>H<SUB>8</SUB>O<SUB>3</SUB>", "sample": [["Source:", "commercial source"], ["Purification:", "stated by supplier"], ["Purity:", "99 mass %"]]}], "title": "Refraction, surface tension, and speed of sound: Refractive index (Na D-line)", "dhead": [["Temperature, K", null], ["Pressure, kPa", null], ["Mole fraction of 4-oxopentanoic acid", "Liquid"], ["Refractive index (Na D-line)", "Liquid"]], "solvent": null, "data": [[["293.15"], ["101"], ["0.75"], ["1.46416", "0.00051"]], [["298.15"], ["101"], ["0.75"], ["1.4626", "0.00051"]], [["303.15"], ["101"], ["0.75"], ["1.46103", "0.00051"]], [["308.15"], ["101"], ["0.75"], ["1.4594", "0.0005"]], [["313.15"], ["101"], ["0.75"], ["1.45796", "0.0005"]], [["318.15"], ["101"], ["0.75"], ["1.45635", "0.00051"]], [["323.15"], ["101"], ["0.75"], ["1.45478", "0.00051"]], [["328.15"], ["101"], ["0.75"], ["1.45324", "0.0005"]], [["333.15"], ["101"], ["0.75"], ["1.45172", "0.0005"]], [["338.15"], ["101"], ["0.75"], ["1.45028", "0.0005"]], [["343.15"], ["101"], ["0.75"], ["1.44875", "0.0005"]]], "footer": "", "expmeth": "Standard Abbe refractometry"}