{"title": "Refraction, surface tension, and speed of sound: Refractive index (Na D-line)", "components": [{"sample": [["Source:", "commercial source"], ["Initial purification:", "stated by supplier"], ["Initial purity:", "97 mass %"], ["Final purification:", "estimated by the compiler"], ["Final purity:", "97 mass %(dried in a desiccator;molecular sieve treatment)"]], "idout": "AAwHNg", "mw": "250.31", "formula": "C<SUB>9</SUB>H<SUB>18</SUB>N<SUB>2</SUB>O<SUB>4</SUB>S", "name": "1-butyl-3-methylimidazolium methyl sulfate"}], "dhead": [["Temperature, K", null], ["Pressure, kPa", null], ["Refractive index (Na D-line)", "Liquid"]], "footer": "", "data": [[["298.15"], ["101.325"], ["1.47824", "0.00068"]], [["303.15"], ["101.325"], ["1.47704", "0.00068"]], [["308.15"], ["101.325"], ["1.47577", "0.00068"]], [["313.15"], ["101.325"], ["1.47443", "0.00068"]]], "solvent": null, "expmeth": "Standard Abbe refractometry", "ref": {"title": "Densities, speeds of sound, and refractive indices for binary mixtures of  1-butyl-3-methylimidazolium methyl sulphate ionic liquid with alcohols  at T = (298.15, 303.15, 308.15, and 313.15) K", "full": "Singh, S.; Aznar, M.; Deenadayalu, N. (2013) J. Chem. Thermodyn. 57, 238-247."}, "constr": [], "phases": ["Liquid"]}