{"constr": [], "ref": {"full": "Alopina, E. V.; Safonova, E. A.; Pukinsky, I. B.; Smirnova, N. A. (2016) J. Chem. Eng. Data 61(6), 2013-2019.", "title": "Liquid Liquid Equilibria in Aqueous Mixtures of Alkylmethylimidazolium Glutamate with Potassium Carbonate and Some Physicochemical Properties of Aqueous [Cnmim][Glu] (n = 4, 6, 8) Solutions"}, "phases": ["Liquid"], "components": [{"sample": [["Source:", "synthesized by the authors"], ["Purification:", "estimated by the compiler"], ["Purity:", "99.8 mass %"]], "name": "water", "formula": "H<SUB>2</SUB>O", "idout": "AADYJk", "mw": "18.02"}, {"sample": [["Source:", "synthesized by the authors"], ["Purification:", "NMR (proton)"], ["Purity:", "99.3 mol %"]], "formula": "C<SUB>13</SUB>H<SUB>23</SUB>N<SUB>3</SUB>O<SUB>4</SUB>", "name": "1-butyl-3-methylimidazolium (S)-2-amino-4-carboxybutanoate", "idout": "ABCtec", "mw": "285.34"}], "title": "Refraction, surface tension, and speed of sound: Refractive index (Na D-line)", "dhead": [["Weight fraction of 1-butyl-3-methylimidazolium (S)-2-amino-4-carboxybutanoate", "Liquid"], ["Pressure, kPa", null], ["Temperature, K", null], ["Refractive index (Na D-line)", "Liquid"]], "data": [[["0.05"], ["100"], ["298.15"], ["1.3448", "0.0004"]], [["0.103"], ["100"], ["298.15"], ["1.3584", "0.0004"]], [["0.152"], ["100"], ["298.15"], ["1.3724", "0.0004"]], [["0.2"], ["100"], ["298.15"], ["1.3838", "0.0004"]], [["0.299"], ["100"], ["298.15"], ["1.4025", "0.0004"]], [["0.377"], ["100"], ["298.15"], ["1.4179", "0.0004"]], [["0.492"], ["100"], ["298.15"], ["1.4473", "0.0004"]], [["0.576"], ["100"], ["298.15"], ["1.4684", "0.0004"]]], "solvent": null, "footer": "", "expmeth": "Standard Abbe refractometry"}