{"components": [{"mw": "249.23", "idout": "AAvwNA", "formula": "C<SUB>11</SUB>H<SUB>14</SUB>F<SUB>3</SUB>NO<SUB>2</SUB>", "name": "1-butylpyridinium trifluoroacetate", "sample": [["Source:", "synthesized by the authors"], ["Purification:", "NMR (proton);Karl Fischer titration;ion-selective electrode"], ["Purity:", "99 mass %;0.05 water mass %;0.05 halide impurity mass %(dried by vacuum heating)"]]}, {"name": "water", "formula": "H<SUB>2</SUB>O", "mw": "18.02", "idout": "AADYJk", "sample": [["Source:", "commercial source"], ["Purification:", "estimated by the compiler"], ["Purity:", "99.8 mass %(fractional distillation)"]]}], "title": "Refraction, surface tension, and speed of sound: Refractive index (Na D-line)", "dhead": [["Weight fraction of water", "Liquid"], ["Temperature, K", null], ["Pressure, kPa", null], ["Refractive index (Na D-line)", "Liquid"]], "data": [[["0.0025"], ["293.15"], ["100"], ["1.5088", "0.0032"]], [["0.0025"], ["298.15"], ["100"], ["1.5074", "0.0032"]], [["0.0025"], ["303.15"], ["100"], ["1.5059", "0.0032"]], [["0.0025"], ["308.15"], ["100"], ["1.5045", "0.0031"]], [["0.0025"], ["313.15"], ["100"], ["1.5029", "0.0032"]], [["0.0025"], ["318.15"], ["100"], ["1.5019", "0.0032"]], [["0.0025"], ["323.15"], ["100"], ["1.5004", "0.0032"]], [["0.0025"], ["328.15"], ["100"], ["1.499", "0.0032"]], [["0.0025"], ["333.15"], ["100"], ["1.498", "0.0032"]], [["0.0025"], ["338.15"], ["100"], ["1.4968", "0.0032"]], [["0.0025"], ["343.15"], ["100"], ["1.4952", "0.0032"]], [["0.0056"], ["293.15"], ["100"], ["1.5068", "0.0032"]], [["0.0056"], ["298.15"], ["100"], ["1.5055", "0.0032"]], [["0.0056"], ["303.15"], ["100"], ["1.5042", "0.0032"]], [["0.0056"], ["308.15"], ["100"], ["1.5029", "0.0031"]], [["0.0056"], ["313.15"], ["100"], ["1.5011", "0.0032"]], [["0.0056"], ["318.15"], ["100"], ["1.5", "0.0032"]], [["0.0056"], ["323.15"], ["100"], ["1.4985", "0.0032"]], [["0.0056"], ["328.15"], ["100"], ["1.4971", "0.0032"]], [["0.0056"], ["333.15"], ["100"], ["1.4961", "0.0032"]], [["0.0056"], ["338.15"], ["100"], ["1.4949", "0.0032"]], [["0.0056"], ["343.15"], ["100"], ["1.4935", "0.0032"]], [["0.0069"], ["293.15"], ["100"], ["1.5063", "0.0031"]], [["0.0069"], ["298.15"], ["100"], ["1.5048", "0.0032"]], [["0.0069"], ["303.15"], ["100"], ["1.5035", "0.0032"]], [["0.0069"], ["308.15"], ["100"], ["1.5023", "0.0031"]], [["0.0069"], ["313.15"], ["100"], ["1.5004", "0.0031"]], [["0.0069"], ["318.15"], ["100"], ["1.4993", "0.0032"]], [["0.0069"], ["323.15"], ["100"], ["1.4978", "0.0032"]], [["0.0069"], ["328.15"], ["100"], ["1.4964", "0.0032"]], [["0.0069"], ["333.15"], ["100"], ["1.4954", "0.0032"]], [["0.0069"], ["338.15"], ["100"], ["1.4942", "0.0032"]], [["0.0069"], ["343.15"], ["100"], ["1.4928", "0.0032"]], [["0.0091"], ["293.15"], ["100"], ["1.505", "0.0032"]], [["0.0091"], ["298.15"], ["100"], ["1.5036", "0.0032"]], [["0.0091"], ["303.15"], ["100"], ["1.5022", "0.0031"]], [["0.0091"], ["308.15"], ["100"], ["1.5012", "0.0031"]], [["0.0091"], ["313.15"], ["100"], ["1.4993", "0.0031"]], [["0.0091"], ["318.15"], ["100"], ["1.498", "0.0032"]], [["0.0091"], ["323.15"], ["100"], ["1.4965", "0.0032"]], [["0.0091"], ["328.15"], ["100"], ["1.4952", "0.0031"]], [["0.0091"], ["333.15"], ["100"], ["1.4941", "0.0032"]], [["0.0091"], ["338.15"], ["100"], ["1.4929", "0.0032"]], [["0.0091"], ["343.15"], ["100"], ["1.4916", "0.0031"]], [["0.0098"], ["293.15"], ["100"], ["1.5047", "0.0032"]], [["0.0098"], ["298.15"], ["100"], ["1.5032", "0.0032"]], [["0.0098"], ["303.15"], ["100"], ["1.5019", "0.0031"]], [["0.0098"], ["308.15"], ["100"], ["1.501", "0.0031"]], [["0.0098"], ["313.15"], ["100"], ["1.4991", "0.0031"]], [["0.0098"], ["318.15"], ["100"], ["1.4977", "0.0032"]], [["0.0098"], ["323.15"], ["100"], ["1.4962", "0.0032"]], [["0.0098"], ["328.15"], ["100"], ["1.4948", "0.0031"]], [["0.0098"], ["333.15"], ["100"], ["1.4938", "0.0032"]], [["0.0098"], ["338.15"], ["100"], ["1.4925", "0.0032"]], [["0.0098"], ["343.15"], ["100"], ["1.4913", "0.0031"]], [["0.0113"], ["293.15"], ["100"], ["1.5039", "0.0031"]], [["0.0113"], ["298.15"], ["100"], ["1.5024", "0.0031"]], [["0.0113"], ["303.15"], ["100"], ["1.5012", "0.0031"]], [["0.0113"], ["308.15"], ["100"], ["1.5003", "0.0032"]], [["0.0113"], ["313.15"], ["100"], ["1.4982", "0.0031"]], [["0.0113"], ["318.15"], ["100"], ["1.4969", "0.0032"]], [["0.0113"], ["323.15"], ["100"], ["1.4953", "0.0031"]], [["0.0113"], ["328.15"], ["100"], ["1.4941", "0.0031"]], [["0.0113"], ["333.15"], ["100"], ["1.4929", "0.0032"]], [["0.0113"], ["338.15"], ["100"], ["1.4917", "0.0031"]], [["0.0113"], ["343.15"], ["100"], ["1.4905", "0.0031"]]], "solvent": null, "footer": "", "expmeth": "Standard Abbe refractometry", "constr": [], "ref": {"title": "Physicochemical properties of N-alkylpyridine trifluoroacetate ionic liquids [CnPy][TFA] (n = 2-6)", "full": "Song, Zongren; Yan, Qiang; Xia, Meichen; Qi, Xiaochen; Zhang, Zhiheng; Wei, Jie; Fang, Dawei; Ma, Xiaoxue (2021) J. Chem. Thermodyn. 155, 106366."}, "phases": ["Liquid"]}