{"components": [{"name": "tetrabutylammonium 3-(cyclohexylamino)-2-hydroxypropanesulfonate", "formula": "C<SUB>25</SUB>H<SUB>54</SUB>N<SUB>2</SUB>O<SUB>4</SUB>S", "idout": "ABoDJr", "mw": "478.78", "sample": [["Source:", "synthesized by the authors"], ["Purification:", "NMR (proton)"], ["Purity:", "97 mass %"]]}], "title": "Refraction, surface tension, and speed of sound: Refractive index (Na D-line)", "dhead": [["Pressure, kPa", null], ["Temperature, K", null], ["Refractive index (Na D-line)", "Liquid"]], "data": [[["100"], ["308.15"], ["1.48329", "0.0012"]], [["100"], ["313.15"], ["1.48189", "0.0012"]], [["100"], ["318.15"], ["1.48037", "0.0012"]], [["100"], ["323.15"], ["1.47937", "0.0012"]], [["100"], ["328.15"], ["1.47772", "0.0012"]], [["100"], ["333.15"], ["1.47617", "0.0012"]], [["100"], ["338.15"], ["1.47449", "0.0012"]], [["100"], ["343.15"], ["1.47291", "0.0012"]], [["100"], ["348.15"], ["1.47137", "0.0012"]], [["100"], ["353.15"], ["1.46985", "0.0012"]]], "solvent": null, "footer": "", "expmeth": "Standard Abbe refractometry", "constr": [], "ref": {"title": "Densities, Viscosities, and Refractive Indexes of Good's Buffer Ionic Liquids", "full": "Lee, S. Y.; Vicente, F. A.; Coutinho, J. A. P.; Khoiroh, I.; Show, P. L.; Ventura, S. P. M. (2016) J. Chem. Eng. Data 61(7), 2260-2268."}, "phases": ["Liquid"]}