{"expmeth": "Standard Abbe refractometry", "data": [[["288.15"], ["101.325"], ["1.494", "0.0005"]], [["293.15"], ["101.325"], ["1.4928", "0.0005"]], [["303.15"], ["101.325"], ["1.4901", "0.0005"]], [["308.15"], ["101.325"], ["1.4891", "0.0005"]], [["313.15"], ["101.325"], ["1.4875", "0.0005"]], [["318.15"], ["101.325"], ["1.4864", "0.0005"]], [["323.15"], ["101.325"], ["1.485", "0.0005"]], [["328.15"], ["101.325"], ["1.4841", "0.0005"]], [["333.15"], ["101.325"], ["1.4827", "0.0005"]]], "solvent": null, "footer": "", "dhead": [["Temperature, K", null], ["Pressure, kPa", null], ["Refractive index (Na D-line)", "Liquid"]], "components": [{"name": "1-pentyl-3-methylimidazolium lactate", "formula": "C<SUB>12</SUB>H<SUB>22</SUB>N<SUB>2</SUB>O<SUB>3</SUB>", "mw": "242.32", "idout": "AAufur", "sample": [["Source:", "synthesized by the authors"], ["Purification:", "estimated by the compiler"], ["Purity:", "98 mass %(dried by vacuum heating)"]]}], "title": "Refraction, surface tension, and speed of sound: Refractive index (Na D-line)", "phases": ["Liquid"], "constr": [], "ref": {"full": "Hong, M.; Sun, A.; Yang, Q.; Guan, W.; Tong, J.; Yang, J. -Z. (2013) J. Chem. Thermodyn. 67, 91-98.", "title": "Studies on properties of ionic liquids 1-alkyl-3-methylimidazolium lactate at temperatures from (288.15 to 333.15) K"}}