{"title": "Refraction, surface tension, and speed of sound: Refractive index (Na D-line)", "components": [{"sample": [["Source:", "synthesized by the authors"], ["Purification:", "Karl Fischer titration;ion chromatography"], ["Purity:", "0.0283 water mass %;0.0076 halide impurity mass %(chemical reagent treatment;dried by vacuum heating)"]], "mw": "220.29", "idout": "AAqSBO", "formula": "C<SUB>10</SUB>H<SUB>12</SUB>N<SUB>4</SUB>S", "name": "3-(3-allyl-1H-imidazol-3-ium-1-yl)propanenitrile thiocyanate"}], "dhead": [["Temperature, K", null], ["Pressure, kPa", null], ["Refractive index (Na D-line)", "Liquid"]], "footer": "", "data": [[["293.15"], ["101.325"], ["1.5578", "0.001"]], [["298.15"], ["101.325"], ["1.5563", "0.001"]], [["303.15"], ["101.325"], ["1.5548", "0.001"]], [["308.15"], ["101.325"], ["1.5532", "0.001"]], [["313.15"], ["101.325"], ["1.5517", "0.001"]], [["318.15"], ["101.325"], ["1.5502", "0.001"]], [["323.15"], ["101.325"], ["1.5488", "0.001"]], [["328.15"], ["101.325"], ["1.5473", "0.001"]], [["333.15"], ["101.325"], ["1.5458", "0.001"]]], "solvent": null, "expmeth": "Standard Abbe refractometry", "ref": {"title": "Evaluation of Thermophysical Properties of Functionalized Imidazolium Thiocyanate Based Ionic Liquids", "full": "Gonfa, G.; Bustam, M. A.; Muhammad, Nawshad; Khan, Amir Sada (2015) Ind. Eng. Chem. Res. 54(49), 12428-12437."}, "constr": [], "phases": ["Liquid"]}