{"expmeth": "Standard Abbe refractometry", "data": [[["303.15"], ["101.325"], ["1.5325", "0.003"]], [["308.15"], ["101.325"], ["1.5309", "0.003"]], [["313.15"], ["101.325"], ["1.5285", "0.003"]], [["318.15"], ["101.325"], ["1.527", "0.003"]], [["323.15"], ["101.325"], ["1.5253", "0.003"]], [["328.15"], ["101.325"], ["1.5237", "0.003"]], [["333.15"], ["101.325"], ["1.5217", "0.003"]], [["338.15"], ["101.325"], ["1.5202", "0.003"]]], "solvent": null, "footer": "", "dhead": [["Temperature, K", null], ["Pressure, kPa", null], ["Refractive index (Na D-line)", "Liquid"]], "components": [{"name": "1-butylpyridinium dicyanamide", "formula": "C<SUB>11</SUB>H<SUB>14</SUB>N<SUB>4</SUB>", "mw": "202.26", "idout": "AAmufZ", "sample": [["Source:", "synthesized by the authors"], ["Purification:", "HPLC"], ["Purity:", "99 mass %(dried by vacuum heating)"]]}], "title": "Refraction, surface tension, and speed of sound: Refractive index (Na D-line)", "phases": ["Liquid"], "constr": [], "ref": {"full": "Xing, N.; Dai, B.; Ma, X.; Wei, J.; Pan, Y.; Guan, W. (2016) J. Chem. Thermodyn. 95, 21-25.", "title": "The molar surface Gibbs energy and prediction of surface tension of [Cnpy][DCA] (n = 3,4,5)"}}