{"title": "Refraction, surface tension, and speed of sound: Refractive index (Na D-line)", "components": [{"formula": "C<SUB>12</SUB>H<SUB>19</SUB>F<SUB>6</SUB>N<SUB>3</SUB>O<SUB>4</SUB>S<SUB>2</SUB>", "name": "1-hexyl-3-methylimidazolium bis[(trifluoromethyl)sulfonyl]imide", "mw": "447.41", "idout": "ABiCtA", "sample": [["Source:", "commercial source"], ["Purification:", "NMR (proton);Karl Fischer titration"], ["Purity:", "98 mol %;0.0086 water mass %"]]}], "dhead": [["Temperature, K", null], ["Pressure, kPa", null], ["Refractive index (Na D-line)", "Liquid"]], "footer": "", "data": [[["283.15"], ["101.325"], ["1.4355", "0.0006"]], [["293.15"], ["101.325"], ["1.4324", "0.0006"]], [["303.15"], ["101.325"], ["1.4298", "0.0006"]], [["313.15"], ["101.325"], ["1.4271", "0.0006"]]], "solvent": null, "expmeth": "Standard Abbe refractometry", "constr": [], "ref": {"title": "Thermal Conductivity of Ionic Liquids: Measurement and Prediction", "full": "Froba, A. P.; Rausch, M. H.; Krzeminski, K.; Assenbaum, D.; Wasserscheid, P.; Leipertz, A. (2010) Int. J. Thermophys. 31(11-12), 2059-2077."}, "phases": ["Liquid"]}