{"components": [{"mw": "84.99", "idout": "AAQRpw", "name": "sodium nitrate", "formula": "NNaO<SUB>3</SUB>", "sample": [["Source:", "commercial source"], ["Purification:", "stated by supplier"], ["Purity:", "99 mass %"], ["Purity analysis:", "dried by vacuum heating"]]}, {"name": "water", "formula": "H<SUB>2</SUB>O", "mw": "18.02", "idout": "AADYJk", "sample": [["Purification:", "estimated by the compiler"], ["Purity:", "99.9 mass %(unspecified)"]]}, {"sample": [["Source:", "commercial source"], ["Purification:", "stated by supplier"], ["Purity:", "99 mol %"], ["Purity analysis:", "dried by vacuum heating"]], "mw": "275.23", "idout": "ABAwEw", "formula": "C<SUB>12</SUB>H<SUB>23</SUB>BrN<SUB>2</SUB>", "name": "1-methyl-3-octylimidazolium bromide"}], "title": "Refraction, surface tension, and speed of sound: Refractive index (Na D-line)", "dhead": [["Weight fraction of 1-methyl-3-octylimidazolium bromide", "Liquid"], ["Weight fraction of sodium nitrate", "Liquid"], ["Pressure, kPa", null], ["Temperature, K", null], ["Refractive index (Na D-line)", "Liquid"]], "data": [[["0"], ["0.4718"], ["101"], ["298.15"], ["1.38955", "0.00033"]], [["0.0511"], ["0.3876"], ["101"], ["298.15"], ["1.39505", "0.00033"]], [["0.1125"], ["0.326"], ["101"], ["298.15"], ["1.40064", "0.00033"]], [["0.1889"], ["0.2454"], ["101"], ["298.15"], ["1.40689", "0.00033"]], [["0.2725"], ["0.1834"], ["101"], ["298.15"], ["1.41382", "0.00033"]], [["0.359"], ["0.1394"], ["101"], ["298.15"], ["1.42157", "0.00033"]], [["0.4433"], ["0.1144"], ["101"], ["298.15"], ["1.43002", "0.00034"]], [["0.5306"], ["0.0915"], ["101"], ["298.15"], ["1.43981", "0.00034"]], [["0.6142"], ["0.0797"], ["101"], ["298.15"], ["1.45089", "0.00035"]], [["0.7094"], ["0.0552"], ["101"], ["298.15"], ["1.46355", "0.00035"]], [["0.8026"], ["0.038"], ["101"], ["298.15"], ["1.47867", "0.00036"]]], "solvent": null, "footer": "", "expmeth": "Standard Abbe refractometry", "constr": [], "ref": {"title": "Phase behavior of [Cnmim]Cl/Br (n=2, 4, 6, 8) +MNO3(M=Na, K, Rb, Cs) + H2O systems at 298.15 K", "full": "Li, X.; Li, S.; Zhai, Q.; Jiang, Y.; Hu, M. (2016) J. Mol. Liq. 215, 237-243."}, "phases": ["Liquid"]}