{"ref": {"title": "Thermodynamic behavior of {ethanol + butylpyridinium tetrafluoroborate} binary solution in the critical region", "full": "Tao, X.; Yin, T.; Xu, C.; Shen, W. (2017) J. Chem. Thermodyn. 110, 211-217."}, "constr": [], "phases": ["Liquid"], "components": [{"idout": "AAquMR", "mw": "223.02", "name": "1-butylpyridinium tetrafluoroborate", "formula": "C<SUB>9</SUB>H<SUB>14</SUB>BF<SUB>4</SUB>N", "sample": [["Source:", "commercial source"], ["Initial purification:", "stated by supplier"], ["Initial purity:", "99 mass %"], ["Final purification:", "Karl Fischer titration"], ["Final purity:", "0.0520 water mass %(dried in a desiccator;dried by vacuum heating)"]]}], "title": "Refraction, surface tension, and speed of sound: Refractive index (Na D-line)", "dhead": [["Temperature, K", null], ["Pressure, kPa", null], ["Refractive index (Na D-line)", "Liquid"]], "data": [[["298.15"], ["101.325"], ["1.4459", "0.0007"]]], "solvent": null, "footer": "", "expmeth": "Standard Abbe refractometry"}