{"expmeth": "Standard Abbe refractometry", "data": [[["100"], ["298.15"], ["1.4337", "0.0021"]]], "solvent": null, "footer": "", "dhead": [["Pressure, kPa", null], ["Temperature, K", null], ["Refractive index (Na D-line)", "Liquid"]], "components": [{"mw": "291.33", "idout": "ABEBwg", "formula": "C<SUB>10</SUB>H<SUB>20</SUB>F<SUB>3</SUB>NO<SUB>3</SUB>S", "name": "1-butyl-1-methylpyrrolidinium trifluoromethanesulfonate", "sample": [["Source:", "commercial source"], ["Initial purification:", "stated by supplier"], ["Initial purity:", "98 mass %"], ["Final purification:", "Karl Fischer titration"], ["Final purity:", "0.01 water mass %"]]}], "title": "Refraction, surface tension, and speed of sound: Refractive index (Na D-line)", "phases": ["Liquid"], "ref": {"title": "Measurement and correlation of isobaric binary vapor-liquid equilibria for water and 2-propanol each with 1-butyl-1-methypyrrolidinium chloride and 1-butyl-1-methylpyrrolidinium trifluoromethanesulfonate", "full": "Mohammed, F.; Qasim, M.; Aidan, A. A.; Darwish, N. A. (2018) J. Mol. Liq. 264, 534-542."}, "constr": []}