{"phases": ["Liquid mixture 1", "Liquid mixture 2"], "ref": {"title": "Liquid-Liquid Equilibria for {1-Ethyl-3-methylimidazolium Diethylphosphate or 1-Ethyl-3-methylimidazolium Ethylsulfate} + 4,6-Dimethyldibenzothiophene + Dodecane Systems at 298.2 K and 313.2 K  ", "full": "Oliveira, L. H. d.; Aznar, M. (2011) J. Chem. Eng. Data 56(5), 2005-2012."}, "constr": [], "expmeth": "Standard Abbe refractometry", "footer": "", "solvent": null, "data": [[["298.2"], ["0.9965"], ["95"], ["1.479", "0.0009"]], [["298.2"], ["0.997"], ["95"], ["1.4791", "0.0009"]], [["298.2"], ["0.9971"], ["95"], ["1.4789", "0.0009"]], [["298.2"], ["0.9974"], ["95"], ["1.4789", "0.0009"]], [["298.2"], ["0.9983"], ["95"], ["1.4788", "0.0007"]], [["313.2"], ["0.9945"], ["95"], ["1.4754", "0.0008"]], [["313.2"], ["0.9953"], ["95"], ["1.4751", "0.0008"]], [["313.2"], ["0.9961"], ["95"], ["1.475", "0.0007"]], [["313.2"], ["0.9986"], ["95"], ["1.4749", "0.0007"]]], "dhead": [["Temperature, K", null], ["Weight fraction of 1-ethyl-3-methylimidazolium ethyl sulfate", "Liquid mixture 1"], ["Pressure, kPa", null], ["Refractive index (Na D-line)", "Liquid mixture 1"]], "title": "Refraction, surface tension, and speed of sound: Refractive index (Na D-line)", "components": [{"mw": "170.34", "idout": "AAgnKZ", "name": "dodecane", "formula": "C<SUB>12</SUB>H<SUB>26</SUB>", "sample": [["Source:", "commercial source"], ["Purification:", "stated by supplier"], ["Purity:", "99.6 % (basis not specified)"]]}, {"name": "4,6-dimethyldibenzo[b,d]thiophene", "formula": "C<SUB>14</SUB>H<SUB>12</SUB>S", "mw": "212.31", "idout": "AAoryz", "sample": [["Source:", "commercial source"], ["Purification:", "stated by supplier"], ["Purity:", "97 % (basis not specified)"]]}, {"formula": "C<SUB>8</SUB>H<SUB>16</SUB>N<SUB>2</SUB>O<SUB>4</SUB>S", "name": "1-ethyl-3-methylimidazolium ethyl sulfate", "idout": "AAtWDT", "mw": "236.29", "sample": [["Source:", "commercial source"], ["Initial purification:", "stated by supplier"], ["Initial purity:", "95 % (basis not specified)"], ["Final purification:", "Karl Fischer titration"], ["Final purity:", "0.05 water mass %"]]}]}