{"constr": [], "ref": {"full": "Wang, R.; Qi, X.; Liu, S.; He, Y.; Deng, Y. (2016) J. Mol. Liq. 221, 339-345.", "title": "A comparison study on the properties of 1,3-dialkylimidazolium tetrafluoroborate salts prepared by halogen-free and traditional method"}, "phases": ["Liquid"], "components": [{"mw": "240.05", "idout": "AAuIpS", "name": "1-butyl-3-ethylimidazolium tetrafluoroborate", "formula": "C<SUB>9</SUB>H<SUB>17</SUB>BF<SUB>4</SUB>N<SUB>2</SUB>", "sample": [["Source:", "synthesized by the authors"], ["Purification:", "estimation;ion-selective electrode"], ["Purity:", "97 mass %;0.87 halide impurity mass %(dried by vacuum heating;solvent extraction;fractional distillation)"]]}], "title": "Refraction, surface tension, and speed of sound: Refractive index (Na D-line)", "dhead": [["Temperature, K", null], ["Pressure, kPa", null], ["Refractive index (Na D-line)", "Liquid"]], "solvent": null, "data": [[["298.1"], ["101.325"], ["1.4261", "0.0009"]]], "footer": "", "expmeth": "Standard Abbe refractometry"}