{"ref": {"full": "Alonso, L.; Arce, A.; Francisco, M.; Soto, A. (2008) J. Chem. Thermodyn. 40(2), 265-270.", "title": "(Liquid + liquid) equilibria of [C8mim][NTf2] ionic liquid with a sulfur-component and hydrocarbons"}, "constr": [], "phases": ["Liquid"], "title": "Refraction, surface tension, and speed of sound: Refractive index (Na D-line)", "components": [{"sample": [["Source:", "synthesized by the authors"], ["Purification:", "Karl Fischer titration"], ["Purity:", "0.0021 water mass %(dried by vacuum heating)"]], "idout": "ABnWNT", "mw": "475.47", "formula": "C<SUB>14</SUB>H<SUB>23</SUB>F<SUB>6</SUB>N<SUB>3</SUB>O<SUB>4</SUB>S<SUB>2</SUB>", "name": "1-methyl-3-octylimidazolium bis(trifluoromethylsulfonyl)imide"}], "dhead": [["Temperature, K", null], ["Pressure, kPa", null], ["Refractive index (Na D-line)", "Liquid"]], "footer": "", "data": [[["298.15"], ["101.325"], ["1.43331", "0.0012"]]], "solvent": null, "expmeth": "Standard Abbe refractometry"}