{"ref": {"full": "Ma, X.-X.; Wei, J.; Zhang, Q.-B.; Tian, F.; Feng, Y.-Y.; Guan, W. (2013) Ind. Eng. Chem. Res. 52(27), 9490-9496.", "title": "Prediction of Thermophysical Properties of Acetate-Based Ionic Liquids Using Semiempirical Methods"}, "constr": [], "phases": ["Liquid"], "title": "Refraction, surface tension, and speed of sound: Refractive index (Na D-line)", "components": [{"idout": "AAjWCu", "mw": "184.24", "name": "1-propyl-3-methylimidazolium acetate", "formula": "C<SUB>9</SUB>H<SUB>16</SUB>N<SUB>2</SUB>O<SUB>2</SUB>", "sample": [["Source:", "commercial source"], ["Purification:", "estimated by the compiler"], ["Purity:", "98 mass %"], ["Purity analysis:", "dried by vacuum heating"]]}], "dhead": [["Temperature, K", null], ["Pressure, kPa", null], ["Refractive index (Na D-line)", "Liquid"]], "footer": "", "data": [[["298.15"], ["101"], ["1.4902", "0.0005"]], [["303.15"], ["101"], ["1.489", "0.0005"]], [["308.15"], ["101"], ["1.488", "0.0005"]], [["313.15"], ["101"], ["1.4868", "0.0005"]], [["318.15"], ["101"], ["1.4858", "0.0005"]], [["323.15"], ["101"], ["1.4845", "0.0005"]], [["328.15"], ["101"], ["1.4835", "0.0005"]], [["333.15"], ["101"], ["1.4824", "0.0005"]], [["338.15"], ["101"], ["1.4811", "0.0005"]]], "solvent": null, "expmeth": "Standard Abbe refractometry"}