{"expmeth": "Standard Abbe refractometry", "data": [[["0.333"], ["298.15"], ["100"], ["1.4421", "0.0005"]], [["0.333"], ["308.15"], ["100"], ["1.44", "0.0005"]], [["0.333"], ["318.15"], ["100"], ["1.4379", "0.0005"]], [["0.333"], ["328.15"], ["100"], ["1.4356", "0.0005"]]], "solvent": null, "footer": "", "dhead": [["Mole fraction of lithium bis((trifluoromethyl)sulfonyl)amide", "Liquid"], ["Temperature, K", null], ["Pressure, kPa", null], ["Refractive index (Na D-line)", "Liquid"]], "components": [{"mw": "287.08", "idout": "ABDKGa", "name": "lithium bis((trifluoromethyl)sulfonyl)amide", "formula": "C<SUB>2</SUB>F<SUB>6</SUB>LiNO<SUB>4</SUB>S<SUB>2</SUB>", "sample": [["Source:", "commercial source"], ["Purification:", "stated by supplier"], ["Purity:", "99 % (basis not specified)"]]}, {"name": "glycerol", "formula": "C<SUB>3</SUB>H<SUB>8</SUB>O<SUB>3</SUB>", "idout": "AARkmK", "mw": "92.09", "sample": [["Source:", "commercial source"], ["Purification:", "stated by supplier"], ["Purity:", "99.5 % (basis not specified)"]]}], "title": "Refraction, surface tension, and speed of sound: Refractive index (Na D-line)", "phases": ["Liquid"], "ref": {"title": "Tuning refractive index of deep eutectic solvents", "full": "Chen, Y.; Zhao, D.; Bai, Y.; Duan, Y.; Liu, C.; Gu, J.; Wang, X.; Sun, X.; Li, Y.; Zhang, L. (2022) J. Mol. Liq. 348, 118031."}, "constr": []}