{"ref": {"full": "Mohammadi, M. D.; Hamzehloo, M.; Abdullah, H. Y. (2021) J. Solution Chem. 50(4), 576-590.", "title": "Experimental Measurement of Physical, Transport, and Optical Properties of Binary Mixtures of N-Hexyl Pyridinium Nitrate [HPy][NO3] Ionic Liquid with Water, Ethanol, and Acetonitrile at 298.15 K and 101 kPa"}, "constr": [], "phases": ["Liquid"], "components": [{"sample": [["Source:", "synthesized by the authors"], ["Purification:", "NMR (proton)"], ["Purity:", "98 mass %"]], "idout": "AAraWc", "mw": "226.28", "formula": "C<SUB>11</SUB>H<SUB>18</SUB>N<SUB>2</SUB>O<SUB>3</SUB>", "name": "1-hexylpyridinium nitrate"}], "title": "Refraction, surface tension, and speed of sound: Refractive index (Na D-line)", "dhead": [["Temperature, K", null], ["Pressure, kPa", null], ["Refractive index (Na D-line)", "Liquid"]], "data": [[["283.15"], ["101.325"], ["1.5208", "0.0005"]], [["288.15"], ["101.325"], ["1.5187", "0.0005"]], [["293.15"], ["101.325"], ["1.5165", "0.0005"]], [["298.15"], ["101.325"], ["1.5139", "0.0005"]], [["303.15"], ["101.325"], ["1.5103", "0.0005"]], [["308.15"], ["101.325"], ["1.5075", "0.0005"]], [["313.15"], ["101.325"], ["1.5042", "0.0005"]], [["318.15"], ["101.325"], ["1.5018", "0.0005"]], [["323.15"], ["101.325"], ["1.498", "0.0005"]], [["328.15"], ["101.325"], ["1.4959", "0.0005"]], [["333.15"], ["101.325"], ["1.4933", "0.0005"]], [["338.15"], ["101.325"], ["1.4915", "0.0005"]], [["343.15"], ["101.325"], ["1.4898", "0.0005"]]], "solvent": null, "footer": "", "expmeth": "Standard Abbe refractometry"}