{"components": [{"name": "1-hexyl-3-methylimidazolium bis[(trifluoromethyl)sulfonyl]imide", "formula": "C<SUB>12</SUB>H<SUB>19</SUB>F<SUB>6</SUB>N<SUB>3</SUB>O<SUB>4</SUB>S<SUB>2</SUB>", "idout": "ABiCtA", "mw": "447.41", "sample": [["Source:", "commercial source"], ["Initial purification:", "stated by supplier"], ["Initial purity:", "99 mass %"], ["Final purification:", "Karl Fischer titration"], ["Final purity:", "0.0026 water mass %(dried in a desiccator;dried by vacuum heating)"]]}], "title": "Refraction, surface tension, and speed of sound: Refractive index (Na D-line)", "dhead": [["Temperature, K", null], ["Pressure, kPa", null], ["Refractive index (Na D-line)", "Liquid"]], "data": [[["298.15"], ["101.325"], ["1.43119", "0.0014"]]], "solvent": null, "footer": "", "expmeth": "Standard Abbe refractometry", "ref": {"title": "Refraction Index and Molar Refraction in Ionic Liquid/PEG200 Solutions", "full": "Branco, A. S. H.; Calado, M. S.; Fareleira, J. M. N. A.; Visak, Z. P.; Lopes, J. N. C. (2015) J. Solution Chem. 44, 431-439."}, "constr": [], "phases": ["Liquid"]}