{"title": "Refraction, surface tension, and speed of sound: Refractive index (Na D-line)", "components": [{"formula": "C<SUB>10</SUB>H<SUB>15</SUB>F<SUB>6</SUB>N<SUB>3</SUB>O<SUB>4</SUB>S<SUB>2</SUB>", "name": "1-butyl-3-methylimidazolium bis(trifluoromethylsulfonyl)imide", "mw": "419.36", "idout": "ABchwx", "sample": [["Source:", "commercial source"], ["Purification:", "stated by supplier"], ["Purity:", "99 % (basis not specified)"], ["Purity analysis:", "dried with chemical reagent"]]}], "dhead": [["Temperature, K", null], ["Pressure, kPa", null], ["Refractive index (Na D-line)", "Liquid"]], "footer": "", "data": [[["298.2"], ["101.325"], ["1.426", "0.0008"]]], "solvent": null, "expmeth": "Standard Abbe refractometry", "constr": [], "ref": {"full": "Ros, A. P. d. l.; Fernndez, F. J. H.; Gmez, D.; Rubio, M.; Vllora, G. (2012) Sep. Sci. Technol. 47(2), 300-311.", "title": "(Liquid +Liquid) Equilibrium for Ternary Systems Containing of an Ionic Liquid, n-Hexane and an Organic Compound Involved in the Kinetic Resolution ofrac-2-Pentanol"}, "phases": ["Liquid"]}