{"components": [{"sample": [["Source:", "commercial source"], ["Purification:", "estimated by the compiler;Karl Fischer titration"], ["Purity:", "98 mass %;0.05 water mass %(dried by vacuum heating)"]], "mw": "292.39", "idout": "ABELpB", "formula": "C<SUB>12</SUB>H<SUB>24</SUB>N<SUB>2</SUB>O<SUB>4</SUB>S", "name": "1-hexyl-3-methylimidazolium ethyl sulfate"}], "title": "Refraction, surface tension, and speed of sound: Refractive index (Na D-line)", "dhead": [["Temperature, K", null], ["Pressure, kPa", null], ["Refractive index (Na D-line)", "Liquid"]], "solvent": null, "data": [[["298.15"], ["101.325"], ["1.4677", "0.0007"]], [["308.15"], ["101.325"], ["1.4636", "0.0007"]], [["318.15"], ["101.325"], ["1.4596", "0.0007"]], [["328.15"], ["101.325"], ["1.4566", "0.0006"]]], "footer": "", "expmeth": "Standard Abbe refractometry", "ref": {"title": "Apparent molar volumes and expansivities of aqueous solutions of ionic liquids, 1-alkyl-3-methylimidazolium alkyl sulfate at T = (298.15-328.15) K", "full": "Shekaari, H.; Armanfar, E. (2011) Fluid Phase Equilib. 303(2), 120-125."}, "constr": [], "phases": ["Liquid"]}