{"constr": [], "ref": {"full": "Larriba, M.; Garcia, S.; Garcia, J.; Torrecilla, J. S.; Rodriguez, F. (2011) J. Chem. Eng. Data 56(9), 3589-3597.", "title": "Thermophysical Properties of 1-Ethyl-3-methylimidazolium 1,1,2,2-Tetrafluoroethanesulfonate and 1-Ethyl-3-methylimidazolium Ethylsulfate Ionic Liquids as a Function of Temperature  "}, "phases": ["Liquid"], "components": [{"name": "1-ethyl-3-methyl-1H-imidazolium 1,1,2,2-tetrafluoroethane-1-sulfonate", "formula": "C<SUB>8</SUB>H<SUB>12</SUB>F<SUB>4</SUB>N<SUB>2</SUB>O<SUB>3</SUB>S", "idout": "ABEKef", "mw": "292.25", "sample": [["Source:", "commercial source"], ["Initial purification:", "stated by supplier"], ["Initial purity:", "99 mass %"], ["Final purification:", "gas chromatography;gas chromatography"], ["Final purity:", "0.0001 water mass %;0.0001 water mass %"]]}], "title": "Refraction, surface tension, and speed of sound: Refractive index (Na D-line)", "dhead": [["Temperature, K", null], ["Pressure, kPa", null], ["Refractive index (Na D-line)", "Liquid"]], "data": [[["293.15"], ["101.325"], ["1.441", "0.00047"]], [["303.15"], ["101.325"], ["1.43833", "0.00047"]], [["313.15"], ["101.325"], ["1.4357", "0.00047"]], [["323.15"], ["101.325"], ["1.43304", "0.00047"]], [["333.15"], ["101.325"], ["1.43041", "0.00047"]], [["343.15"], ["101.325"], ["1.42777", "0.00047"]], [["353.15"], ["101.325"], ["1.42514", "0.00047"]]], "solvent": null, "footer": "", "expmeth": "Standard Abbe refractometry"}