{"title": "Refraction, surface tension, and speed of sound: Refractive index (Na D-line)", "components": [{"sample": [["Source:", "synthesized by the authors"], ["Purification:", "NMR (proton)"], ["Purity:", "98 mass %"]], "mw": "340.29", "idout": "ABNWoR", "name": "1-octyl-3-methylimidazolium hexafluorophosphate", "formula": "C<SUB>12</SUB>H<SUB>23</SUB>F<SUB>6</SUB>N<SUB>2</SUB>P"}], "dhead": [["Temperature, K", null], ["Pressure, kPa", null], ["Refractive index (Na D-line)", "Liquid"]], "footer": "", "data": [[["293.15"], ["100"], ["1.4265", "0.0007"]], [["298.15"], ["100"], ["1.4251", "0.0007"]], [["303.15"], ["100"], ["1.4238", "0.0007"]], [["308.15"], ["100"], ["1.4224", "0.0007"]], [["313.15"], ["100"], ["1.421", "0.0007"]]], "solvent": null, "expmeth": "Standard Abbe refractometry", "constr": [], "ref": {"title": "Composition and Temperature Dependence of Excess Properties of Binary Mixtures of Imidazolium Based Ionic Liquids: II ([Cnmim][PF6]) + Propylamine", "full": "Vaid, Z.; More, U. U.; Gardas, R. L.; Malek, N. I.; Ijardar, S. P. (2015) J. Solution Chem. 44, 718-741."}, "phases": ["Liquid"]}