{"expmeth": "Standard Abbe refractometry", "data": [[["0.0947"], ["297.159"], ["101"], ["632.8"], ["1.4328", "0.0004"]], [["0.0947"], ["298.494"], ["101"], ["632.8"], ["1.4325", "0.0004"]], [["0.0947"], ["300.002"], ["101"], ["632.8"], ["1.4321", "0.0005"]], [["0.0947"], ["301.525"], ["101"], ["632.8"], ["1.4317", "0.0005"]], [["0.0947"], ["303.058"], ["101"], ["632.8"], ["1.4313", "0.0004"]], [["0.0947"], ["305.125"], ["101"], ["632.8"], ["1.4308", "0.0004"]], [["0.194"], ["299.596"], ["101"], ["632.8"], ["1.4289", "0.0006"]], [["0.194"], ["301.079"], ["101"], ["632.8"], ["1.4285", "0.0004"]], [["0.194"], ["302.17"], ["101"], ["632.8"], ["1.4282", "0.0006"]], [["0.194"], ["304.128"], ["101"], ["632.8"], ["1.4276", "0.0005"]], [["0.194"], ["305.507"], ["101"], ["632.8"], ["1.4272", "0.0005"]], [["0.194"], ["307.323"], ["101"], ["632.8"], ["1.4267", "0.0005"]], [["0.299"], ["299.537"], ["101"], ["632.8"], ["1.4263", "0.0005"]], [["0.299"], ["301.401"], ["101"], ["632.8"], ["1.4258", "0.0005"]], [["0.299"], ["303.548"], ["101"], ["632.8"], ["1.4252", "0.0005"]], [["0.299"], ["305.296"], ["101"], ["632.8"], ["1.4247", "0.0005"]], [["0.299"], ["307.428"], ["101"], ["632.8"], ["1.4241", "0.0005"]], [["0.299"], ["309.076"], ["101"], ["632.8"], ["1.4236", "0.0005"]], [["0.384"], ["299.507"], ["101"], ["632.8"], ["1.4245", "0.0005"]], [["0.384"], ["301.217"], ["101"], ["632.8"], ["1.424", "0.0005"]], [["0.384"], ["303.53"], ["101"], ["632.8"], ["1.4234", "0.0005"]], [["0.384"], ["305.284"], ["101"], ["632.8"], ["1.4229", "0.0005"]], [["0.384"], ["307.445"], ["101"], ["632.8"], ["1.4223", "0.0005"]], [["0.384"], ["308.963"], ["101"], ["632.8"], ["1.4219", "0.0005"]], [["0.513"], ["296.024"], ["101"], ["632.8"], ["1.4235", "0.0007"]], [["0.513"], ["298.139"], ["101"], ["632.8"], ["1.4229", "0.0005"]], [["0.513"], ["300"], ["101"], ["632.8"], ["1.4224", "0.0005"]], [["0.513"], ["302.018"], ["101"], ["632.8"], ["1.4218", "0.0005"]], [["0.513"], ["304.012"], ["101"], ["632.8"], ["1.4212", "0.0005"]], [["0.513"], ["304.933"], ["101"], ["632.8"], ["1.4209", "0.0005"]], [["0.602"], ["290.78"], ["101"], ["632.8"], ["1.4239", "0.0005"]], [["0.602"], ["293.294"], ["101"], ["632.8"], ["1.4232", "0.0005"]], [["0.602"], ["295.08"], ["101"], ["632.8"], ["1.4227", "0.0005"]], [["0.602"], ["296.977"], ["101"], ["632.8"], ["1.4222", "0.0005"]], [["0.602"], ["298.984"], ["101"], ["632.8"], ["1.4217", "0.0005"]], [["0.602"], ["301.098"], ["101"], ["632.8"], ["1.4211", "0.0004"]], [["0.698"], ["286.796"], ["101"], ["632.8"], ["1.424", "0.0005"]], [["0.698"], ["289.365"], ["101"], ["632.8"], ["1.4234", "0.0005"]], [["0.698"], ["291.204"], ["101"], ["632.8"], ["1.4229", "0.0005"]], [["0.698"], ["293.301"], ["101"], ["632.8"], ["1.4223", "0.0005"]], [["0.698"], ["294.937"], ["101"], ["632.8"], ["1.4219", "0.0005"]], [["0.698"], ["297.936"], ["101"], ["632.8"], ["1.4211", "0.0005"]], [["0.796"], ["286.808"], ["101"], ["632.8"], ["1.4233", "0.0005"]], [["0.796"], ["288.867"], ["101"], ["632.8"], ["1.4228", "0.0005"]], [["0.796"], ["290.857"], ["101"], ["632.8"], ["1.4223", "0.0005"]], [["0.796"], ["292.889"], ["101"], ["632.8"], ["1.4218", "0.0005"]], [["0.796"], ["295.857"], ["101"], ["632.8"], ["1.4211", "0.0005"]], [["0.796"], ["297.963"], ["101"], ["632.8"], ["1.4206", "0.0005"]], [["0.901"], ["287.242"], ["101"], ["632.8"], ["1.4228", "0.0005"]], [["0.901"], ["288.877"], ["101"], ["632.8"], ["1.4224", "0.0005"]], [["0.901"], ["290.999"], ["101"], ["632.8"], ["1.4219", "0.0005"]], [["0.901"], ["292.949"], ["101"], ["632.8"], ["1.4214", "0.0005"]], [["0.901"], ["294.987"], ["101"], ["632.8"], ["1.4209", "0.0005"]], [["0.901"], ["297.004"], ["101"], ["632.8"], ["1.4204", "0.0005"]], [["0.901"], ["299.997"], ["101"], ["632.8"], ["1.4196", "0.0005"]]], "solvent": null, "footer": "", "dhead": [["Weight fraction of 1-butyl-3-methylimidazolium tetrafluoroborate", "Liquid"], ["Temperature, K", null], ["Pressure, kPa", null], ["Wavelength, A", "Liquid"], ["Refractive index", "Liquid"]], "components": [{"formula": "C<SUB>3</SUB>H<SUB>8</SUB>O<SUB>2</SUB>", "name": "propan-1,3-diol", "mw": "76.09", "idout": "AAOgLD", "sample": [["Source:", "commercial source"], ["Purification:", "stated by supplier"], ["Purity:", "99.5 % (basis not specified)"], ["Purity analysis:", "molecular sieve treatment"]]}, {"sample": [["Source:", "commercial source"], ["Purification:", "stated by supplier"], ["Purity:", "99 % (basis not specified)"]], "mw": "226.03", "idout": "AArYBF", "formula": "C<SUB>8</SUB>H<SUB>15</SUB>BF<SUB>4</SUB>N<SUB>2</SUB>", "name": "1-butyl-3-methylimidazolium tetrafluoroborate"}], "title": "Refraction, surface tension, and speed of sound: Refractive index", "phases": ["Liquid"], "ref": {"title": "Liquid-Liquid Coexistence Curves of {x 1-Butyl-3-methylimidazolium Tetrafluoroborate + (1 - x) 1,3-Propanediol} and {x 1-Butyl-3-methylimidazolium Tetrafluoroborate + (1 - x) 1,4-Butanediol}", "full": "Lv, H.; Guo, Y.; An, X.; Sheng, W. (2010) J. Chem. Eng. Data 55(7), 2482-2488."}, "constr": []}