{"constr": [], "ref": {"title": "Liquid Liquid Equilibrium in N-Methyl-2-hydroxyethylammonium Acetate, Butanoate, or Hexanoate Ionic Liquids + Dibenzothiophene + n-Dodecane Systems at 298.2 K and Atmospheric Pressure", "full": "de Oliveira, L.; Alvarez, V.; Aznar, M. (2012) J. Chem. Eng. Data 57(3), 744-750."}, "phases": ["Liquid"], "title": "Refraction, surface tension, and speed of sound: Refractive index (Na D-line)", "components": [{"sample": [["Source:", "synthesized by the authors"], ["Purification:", "Karl Fischer titration"], ["Purity:", "0.05 water mass %"]], "formula": "C<SUB>9</SUB>H<SUB>21</SUB>NO<SUB>3</SUB>", "name": "N-methyl-2-hydroxyethylammonium hexanoate", "idout": "AAkops", "mw": "191.27"}], "dhead": [["Temperature, K", null], ["Pressure, kPa", null], ["Refractive index (Na D-line)", "Liquid"]], "footer": "", "data": [[["298.15"], ["101.325"], ["1.4563", "0.0012"]]], "solvent": null, "expmeth": "Standard Abbe refractometry"}