{"components": [{"sample": [["Source:", "commercial source"], ["Purification:", "Karl Fischer titration"], ["Purity:", "0.0007 water mass %(molecular sieve treatment)"]], "idout": "ACskOY", "mw": "773.29", "name": "trihexyltetradecylphosphonium bis(2,4,4-trimethylpentyl)phosphinate", "formula": "C<SUB>48</SUB>H<SUB>102</SUB>O<SUB>2</SUB>P<SUB>2</SUB>"}], "title": "Refraction, surface tension, and speed of sound: Refractive index (Na D-line)", "dhead": [["Temperature, K", null], ["Pressure, kPa", null], ["Refractive index (Na D-line)", "Liquid"]], "data": [[["298.15"], ["101.325"], ["1.47126", "0.0034"]]], "solvent": null, "footer": "", "expmeth": "Standard Abbe refractometry", "constr": [], "ref": {"full": "Lee, J.-Y.; Park, S.-J. (2012) Can. J. Chem. Eng. 90, 396-402.", "title": "Density, Refractive Index, Excess Molar Volumes And Deviations In Molar Refraction At 298.15K For Binary And Ternary Mixtures Of Dipe (Or Tame)+ 1-Methanol (Or 1-Propanol)+ Trihexyltetra-Decylphosphonium Bis (2,4,4-Trimethylpentyl) Phosphinate"}, "phases": ["Liquid"]}