{"title": "Refraction, surface tension, and speed of sound: Refractive index (Na D-line)", "components": [{"sample": [["Source:", "synthesized by the authors"], ["Purification:", "not known"], ["Purity:", "99.3 mass %(dried by vacuum heating)"]], "formula": "C<SUB>8</SUB>H<SUB>15</SUB>BF<SUB>4</SUB>N<SUB>2</SUB>", "name": "1-butyl-3-methylimidazolium tetrafluoroborate", "idout": "AArYBF", "mw": "226.03"}, {"sample": [["Source:", "commercial source"], ["Initial purification:", "stated by supplier"], ["Initial purity:", "99.0 mass %"], ["Final purification:", "gas chromatography"], ["Final purity:", "99.8 mass %(fractional distillation)"]], "formula": "C<SUB>7</SUB>H<SUB>9</SUB>N", "name": "N-methylaniline", "idout": "AAUfPO", "mw": "107.16"}], "dhead": [["Temperature, K", null], ["Mole fraction of 1-butyl-3-methylimidazolium tetrafluoroborate", "Liquid"], ["Pressure, kPa", null], ["Refractive index (Na D-line)", "Liquid"]], "footer": "", "data": [[["293.15"], ["0"], ["101.3"], ["1.572", "0.001"]], [["293.15"], ["0.0973"], ["101.3"], ["1.54859", "0.001"]], [["293.15"], ["0.184"], ["101.3"], ["1.53035", "0.001"]], [["293.15"], ["0.2982"], ["101.3"], ["1.50956", "0.001"]], [["293.15"], ["0.3909"], ["101.3"], ["1.494", "0.001"]], [["293.15"], ["0.5025"], ["101.3"], ["1.47744", "0.001"]], [["293.15"], ["0.5928"], ["101.3"], ["1.46545", "0.001"]], [["293.15"], ["0.7005"], ["101.3"], ["1.45225", "0.001"]], [["293.15"], ["0.7963"], ["101.3"], ["1.44203", "0.001"]], [["293.15"], ["0.901"], ["101.3"], ["1.43101", "0.001"]], [["293.15"], ["1"], ["101.3"], ["1.42229", "0.001"]], [["298.15"], ["0"], ["101.3"], ["1.5695", "0.001"]], [["298.15"], ["0.0973"], ["101.3"], ["1.54697", "0.001"]], [["298.15"], ["0.184"], ["101.3"], ["1.52885", "0.001"]], [["298.15"], ["0.2982"], ["101.3"], ["1.50802", "0.001"]], [["298.15"], ["0.3909"], ["101.3"], ["1.49246", "0.001"]], [["298.15"], ["0.5025"], ["101.3"], ["1.47612", "0.001"]], [["298.15"], ["0.5928"], ["101.3"], ["1.46447", "0.001"]], [["298.15"], ["0.7005"], ["101.3"], ["1.45152", "0.001"]], [["298.15"], ["0.7963"], ["101.3"], ["1.44095", "0.001"]], [["298.15"], ["0.901"], ["101.3"], ["1.43008", "0.001"]], [["298.15"], ["1"], ["101.3"], ["1.42178", "0.001"]], [["303.15"], ["0"], ["101.3"], ["1.56705", "0.001"]], [["303.15"], ["0.0973"], ["101.3"], ["1.54548", "0.001"]], [["303.15"], ["0.184"], ["101.3"], ["1.52747", "0.001"]], [["303.15"], ["0.2982"], ["101.3"], ["1.50646", "0.001"]], [["303.15"], ["0.3909"], ["101.3"], ["1.49112", "0.001"]], [["303.15"], ["0.5025"], ["101.3"], ["1.47494", "0.001"]], [["303.15"], ["0.5928"], ["101.3"], ["1.46315", "0.001"]], [["303.15"], ["0.7005"], ["101.3"], ["1.45067", "0.001"]], [["303.15"], ["0.7963"], ["101.3"], ["1.44035", "0.001"]], [["303.15"], ["0.901"], ["101.3"], ["1.42916", "0.001"]], [["303.15"], ["1"], ["101.3"], ["1.42052", "0.001"]], [["308.15"], ["0"], ["101.3"], ["1.56464", "0.001"]], [["308.15"], ["0.0973"], ["101.3"], ["1.54387", "0.001"]], [["308.15"], ["0.184"], ["101.3"], ["1.5264", "0.001"]], [["308.15"], ["0.2982"], ["101.3"], ["1.50513", "0.001"]], [["308.15"], ["0.3909"], ["101.3"], ["1.48984", "0.001"]], [["308.15"], ["0.5025"], ["101.3"], ["1.47415", "0.001"]], [["308.15"], ["0.5928"], ["101.3"], ["1.46215", "0.001"]], [["308.15"], ["0.7005"], ["101.3"], ["1.44955", "0.001"]], [["308.15"], ["0.7963"], ["101.3"], ["1.43945", "0.001"]], [["308.15"], ["0.901"], ["101.3"], ["1.42844", "0.001"]], [["308.15"], ["1"], ["101.3"], ["1.41918", "0.001"]], [["313.15"], ["0"], ["101.3"], ["1.56226", "0.001"]], [["313.15"], ["0.0973"], ["101.3"], ["1.54191", "0.001"]], [["313.15"], ["0.184"], ["101.3"], ["1.52555", "0.001"]], [["313.15"], ["0.2982"], ["101.3"], ["1.50406", "0.001"]], [["313.15"], ["0.3909"], ["101.3"], ["1.48855", "0.001"]], [["313.15"], ["0.5025"], ["101.3"], ["1.47281", "0.001"]], [["313.15"], ["0.5928"], ["101.3"], ["1.46115", "0.001"]], [["313.15"], ["0.7005"], ["101.3"], ["1.44858", "0.001"]], [["313.15"], ["0.7963"], ["101.3"], ["1.4384", "0.001"]], [["313.15"], ["0.901"], ["101.3"], ["1.42752", "0.001"]], [["313.15"], ["1"], ["101.3"], ["1.41788", "0.001"]], [["318.15"], ["0"], ["101.3"], ["1.55997", "0.001"]], [["318.15"], ["0.0973"], ["101.3"], ["1.54036", "0.001"]], [["318.15"], ["0.184"], ["101.3"], ["1.52455", "0.001"]], [["318.15"], ["0.2982"], ["101.3"], ["1.50275", "0.001"]], [["318.15"], ["0.3909"], ["101.3"], ["1.48785", "0.001"]], [["318.15"], ["0.5025"], ["101.3"], ["1.47166", "0.001"]], [["318.15"], ["0.5928"], ["101.3"], ["1.46025", "0.001"]], [["318.15"], ["0.7005"], ["101.3"], ["1.44764", "0.001"]], [["318.15"], ["0.7963"], ["101.3"], ["1.43765", "0.001"]], [["318.15"], ["0.901"], ["101.3"], ["1.42685", "0.001"]], [["318.15"], ["1"], ["101.3"], ["1.41662", "0.001"]], [["323.15"], ["0"], ["101.3"], ["1.55725", "0.001"]], [["323.15"], ["0.0973"], ["101.3"], ["1.5383", "0.001"]], [["323.15"], ["0.184"], ["101.3"], ["1.52316", "0.001"]], [["323.15"], ["0.2982"], ["101.3"], ["1.50152", "0.001"]], [["323.15"], ["0.3909"], ["101.3"], ["1.4865", "0.001"]], [["323.15"], ["0.5025"], ["101.3"], ["1.47028", "0.001"]], [["323.15"], ["0.5928"], ["101.3"], ["1.45913", "0.001"]], [["323.15"], ["0.7005"], ["101.3"], ["1.44708", "0.001"]], [["323.15"], ["0.7963"], ["101.3"], ["1.43689", "0.001"]], [["323.15"], ["0.901"], ["101.3"], ["1.4262", "0.001"]], [["323.15"], ["1"], ["101.3"], ["1.41532", "0.001"]]], "solvent": null, "expmeth": "Standard Abbe refractometry", "constr": [], "ref": {"full": "Master, Z.; Malek, N. I. (2020) J. Chem. Eng. Data 65(11), 5249-5265.", "title": "Temperature, Composition, and Alkyl Chain-Dependent Molecular Interactions between Imidazolium-Based Ionic Liquids with N-Methylaniline and N-Ethylaniline: Experimental and Theoretical Study"}, "phases": ["Liquid"]}