{"ref": {"full": "Suneetha, P.; Krishna, T. S.; Gowrisankar, M.; Ramachandran, D. (2017) J. Mol. Liq. 238, 170-183.", "title": "Volumetric, acoustic and spectroscopic study of 1-butyl-3-methylimidazolium trifluoromethanesulfonate with alkoxyalkanols at different temperatures"}, "constr": [], "phases": ["Liquid"], "title": "Refraction, surface tension, and speed of sound: Refractive index (Na D-line)", "components": [{"sample": [["Source:", "commercial source"], ["Initial purification:", "stated by supplier"], ["Initial purity:", "99 mol %"], ["Final purification:", "NMR (proton)"], ["Final purity:", "99 mol %;0.025 water mass %;0.010 halide impurity mass %(de-gassed by evacuation)"]], "formula": "C<SUB>9</SUB>H<SUB>15</SUB>F<SUB>3</SUB>N<SUB>2</SUB>O<SUB>3</SUB>S", "name": "1-butyl-3-methylimidazolium trifluoromethanesulfonate", "idout": "ABDWVo", "mw": "288.29"}, {"mw": "134.18", "idout": "AAZpai", "formula": "C<SUB>6</SUB>H<SUB>14</SUB>O<SUB>3</SUB>", "name": "3,6-dioxa-1-octanol", "sample": [["Source:", "commercial source"], ["Initial purification:", "stated by supplier"], ["Initial purity:", "99 mol %"], ["Final purification:", "gas chromatography;Karl Fischer titration"], ["Final purity:", "99.7 mol %;0.0140 water mass %(dried with chemical reagent;dried by vacuum heating;fractional distillation)"]]}], "dhead": [["Temperature, K", null], ["Mole fraction of 1-butyl-3-methylimidazolium trifluoromethanesulfonate", "Liquid"], ["Pressure, kPa", null], ["Refractive index (Na D-line)", "Liquid"]], "footer": "", "data": [[["298.15"], ["0"], ["100"], ["1.4263", "0.001"]], [["298.15"], ["0.0999"], ["100"], ["1.4288", "0.001"]], [["298.15"], ["0.2046"], ["100"], ["1.4308", "0.001"]], [["298.15"], ["0.2989"], ["100"], ["1.4324", "0.001"]], [["298.15"], ["0.3934"], ["100"], ["1.4338", "0.001"]], [["298.15"], ["0.4981"], ["100"], ["1.4349", "0.001"]], [["298.15"], ["0.5951"], ["100"], ["1.436", "0.0011"]], [["298.15"], ["0.695"], ["100"], ["1.4366", "0.0011"]], [["298.15"], ["0.7978"], ["100"], ["1.4369", "0.0011"]], [["298.15"], ["0.8934"], ["100"], ["1.437", "0.0011"]], [["298.15"], ["1"], ["100"], ["1.4368", "0.0011"]], [["303.15"], ["0"], ["100"], ["1.4243", "0.001"]], [["303.15"], ["0.0999"], ["100"], ["1.4268", "0.001"]], [["303.15"], ["0.2046"], ["100"], ["1.4288", "0.001"]], [["303.15"], ["0.2989"], ["100"], ["1.4305", "0.001"]], [["303.15"], ["0.3934"], ["100"], ["1.432", "0.001"]], [["303.15"], ["0.4981"], ["100"], ["1.4332", "0.001"]], [["303.15"], ["0.5951"], ["100"], ["1.4343", "0.0011"]], [["303.15"], ["0.695"], ["100"], ["1.4349", "0.0011"]], [["303.15"], ["0.7978"], ["100"], ["1.4353", "0.0011"]], [["303.15"], ["0.8934"], ["100"], ["1.4356", "0.0011"]], [["303.15"], ["1"], ["100"], ["1.4355", "0.0011"]], [["308.15"], ["0"], ["100"], ["1.4224", "0.001"]], [["308.15"], ["0.0999"], ["100"], ["1.4249", "0.001"]], [["308.15"], ["0.2046"], ["100"], ["1.4269", "0.001"]], [["308.15"], ["0.2989"], ["100"], ["1.4286", "0.001"]], [["308.15"], ["0.3934"], ["100"], ["1.4303", "0.001"]], [["308.15"], ["0.4981"], ["100"], ["1.4315", "0.001"]], [["308.15"], ["0.5951"], ["100"], ["1.4326", "0.0011"]], [["308.15"], ["0.695"], ["100"], ["1.4333", "0.0011"]], [["308.15"], ["0.7978"], ["100"], ["1.4338", "0.0011"]], [["308.15"], ["0.8934"], ["100"], ["1.4341", "0.0011"]], [["308.15"], ["1"], ["100"], ["1.4342", "0.0011"]], [["313.15"], ["0"], ["100"], ["1.4204", "0.001"]], [["313.15"], ["0.0999"], ["100"], ["1.423", "0.001"]], [["313.15"], ["0.2046"], ["100"], ["1.4251", "0.001"]], [["313.15"], ["0.2989"], ["100"], ["1.4269", "0.001"]], [["313.15"], ["0.3934"], ["100"], ["1.4287", "0.001"]], [["313.15"], ["0.4981"], ["100"], ["1.43", "0.001"]], [["313.15"], ["0.5951"], ["100"], ["1.4313", "0.0011"]], [["313.15"], ["0.695"], ["100"], ["1.4321", "0.0011"]], [["313.15"], ["0.7978"], ["100"], ["1.4326", "0.0011"]], [["313.15"], ["0.8934"], ["100"], ["1.4331", "0.0011"]], [["313.15"], ["1"], ["100"], ["1.4333", "0.0011"]], [["318.15"], ["0"], ["100"], ["1.4183", "0.001"]], [["318.15"], ["0.0999"], ["100"], ["1.4208", "0.001"]], [["318.15"], ["0.2046"], ["100"], ["1.4231", "0.001"]], [["318.15"], ["0.2989"], ["100"], ["1.4249", "0.001"]], [["318.15"], ["0.3934"], ["100"], ["1.4267", "0.001"]], [["318.15"], ["0.4981"], ["100"], ["1.4282", "0.001"]], [["318.15"], ["0.5951"], ["100"], ["1.4295", "0.0011"]], [["318.15"], ["0.695"], ["100"], ["1.4304", "0.0011"]], [["318.15"], ["0.7978"], ["100"], ["1.431", "0.0011"]], [["318.15"], ["0.8934"], ["100"], ["1.4316", "0.0011"]], [["318.15"], ["1"], ["100"], ["1.4319", "0.0011"]], [["323.15"], ["0"], ["100"], ["1.4166", "0.001"]], [["323.15"], ["0.0999"], ["100"], ["1.4191", "0.001"]], [["323.15"], ["0.2046"], ["100"], ["1.4214", "0.001"]], [["323.15"], ["0.2989"], ["100"], ["1.4232", "0.001"]], [["323.15"], ["0.3934"], ["100"], ["1.4251", "0.001"]], [["323.15"], ["0.4981"], ["100"], ["1.4266", "0.001"]], [["323.15"], ["0.5951"], ["100"], ["1.428", "0.0011"]], [["323.15"], ["0.695"], ["100"], ["1.4289", "0.0011"]], [["323.15"], ["0.7978"], ["100"], ["1.4295", "0.0011"]], [["323.15"], ["0.8934"], ["100"], ["1.4302", "0.0011"]], [["323.15"], ["1"], ["100"], ["1.4306", "0.0011"]]], "solvent": null, "expmeth": "Standard Abbe refractometry"}