{"ref": {"full": "Lee, S. Y.; Vicente, F. A.; Coutinho, J. A. P.; Khoiroh, I.; Show, P. L.; Ventura, S. P. M. (2016) J. Chem. Eng. Data 61(7), 2260-2268.", "title": "Densities, Viscosities, and Refractive Indexes of Good's Buffer Ionic Liquids"}, "constr": [], "phases": ["Liquid"], "components": [{"formula": "C<SUB>11</SUB>H<SUB>28</SUB>N<SUB>2</SUB>O<SUB>6</SUB>S", "name": "2-hydroxy-N,N,N-trimethylethanaminium 2-(bis(2-hydroxyethyl)amino)ethanesulfonate", "mw": "316.41", "idout": "ABIsdK", "sample": [["Source:", "synthesized by the authors"], ["Purification:", "NMR (proton)"], ["Purity:", "97 mass %"]]}], "title": "Refraction, surface tension, and speed of sound: Refractive index (Na D-line)", "dhead": [["Pressure, kPa", null], ["Temperature, K", null], ["Refractive index (Na D-line)", "Liquid"]], "solvent": null, "data": [[["100"], ["298.15"], ["1.50047", "0.0012"]], [["100"], ["303.15"], ["1.49937", "0.0012"]], [["100"], ["308.15"], ["1.49826", "0.0012"]], [["100"], ["313.15"], ["1.49716", "0.0012"]], [["100"], ["318.15"], ["1.49602", "0.0012"]], [["100"], ["323.15"], ["1.49476", "0.0012"]], [["100"], ["328.15"], ["1.49317", "0.0012"]], [["100"], ["333.15"], ["1.49148", "0.0012"]], [["100"], ["338.15"], ["1.49052", "0.0012"]], [["100"], ["343.15"], ["1.48921", "0.0012"]], [["100"], ["348.15"], ["1.48749", "0.0012"]], [["100"], ["353.15"], ["1.48633", "0.0012"]]], "footer": "", "expmeth": "Standard Abbe refractometry"}