{"title": "Refraction, surface tension, and speed of sound: Refractive index (Na D-line)", "components": [{"sample": [["Source:", "commercial source"], ["Purification:", "stated by supplier"], ["Purity:", "99.9 mass %"]], "formula": "C<SUB>3</SUB>H<SUB>8</SUB>O", "name": "propan-1-ol", "mw": "60.10", "idout": "AALcLI"}, {"formula": "C<SUB>11</SUB>H<SUB>20</SUB>N<SUB>4</SUB>", "name": "1-butyl-1-methylpyrrolidinium dicyanamide", "idout": "AAoDPb", "mw": "208.31", "sample": [["Source:", "commercial source"], ["Initial purification:", "stated by supplier"], ["Initial purity:", "98 mass %"], ["Final purification:", "Karl Fischer titration"], ["Final purity:", "0.15 water mass %"]]}], "dhead": [["Temperature, K", null], ["Mole fraction of propan-1-ol", "Liquid"], ["Pressure, kPa", null], ["Refractive index (Na D-line)", "Liquid"]], "footer": "", "data": [[["298.15"], ["0"], ["101"], ["1.49681", "0.00058"]], [["298.15"], ["0.0669"], ["101"], ["1.49446", "0.00056"]], [["298.15"], ["0.1894"], ["101"], ["1.48947", "0.00053"]], [["298.15"], ["0.2912"], ["101"], ["1.48457", "0.00051"]], [["298.15"], ["0.3998"], ["101"], ["1.47813", "0.00048"]], [["298.15"], ["0.514"], ["101"], ["1.46962", "0.00046"]], [["298.15"], ["0.597"], ["101"], ["1.46189", "0.00045"]], [["298.15"], ["0.6944"], ["101"], ["1.45057", "0.00042"]], [["298.15"], ["0.8002"], ["101"], ["1.43439", "0.00039"]], [["298.15"], ["0.894"], ["101"], ["1.41492", "0.00042"]], [["298.15"], ["0.9437"], ["101"], ["1.40174", "0.00042"]], [["298.15"], ["1"], ["101"], ["1.38309", "0.00051"]], [["313.15"], ["0"], ["101"], ["1.49248", "0.00058"]], [["313.15"], ["0.0669"], ["101"], ["1.49003", "0.00057"]], [["313.15"], ["0.1894"], ["101"], ["1.48499", "0.00054"]], [["313.15"], ["0.2912"], ["101"], ["1.48002", "0.00052"]], [["313.15"], ["0.3998"], ["101"], ["1.47348", "0.0005"]], [["313.15"], ["0.514"], ["101"], ["1.46485", "0.00049"]], [["313.15"], ["0.597"], ["101"], ["1.457", "0.00048"]], [["313.15"], ["0.6944"], ["101"], ["1.44557", "0.00047"]], [["313.15"], ["0.8002"], ["101"], ["1.42936", "0.00047"]], [["313.15"], ["0.894"], ["101"], ["1.40968", "0.00048"]], [["313.15"], ["0.9437"], ["101"], ["1.39657", "0.00048"]], [["313.15"], ["1"], ["101"], ["1.37698", "0.00052"]], [["328.15"], ["0"], ["101"], ["1.48821", "0.00058"]], [["328.15"], ["0.0669"], ["101"], ["1.48535", "0.00057"]], [["328.15"], ["0.1894"], ["101"], ["1.48071", "0.00055"]], [["328.15"], ["0.2912"], ["101"], ["1.47547", "0.00053"]], [["328.15"], ["0.3998"], ["101"], ["1.4689", "0.00053"]], [["328.15"], ["0.514"], ["101"], ["1.46017", "0.00051"]], [["328.15"], ["0.597"], ["101"], ["1.45239", "0.0005"]], [["328.15"], ["0.6944"], ["101"], ["1.44087", "0.00052"]], [["328.15"], ["0.8002"], ["101"], ["1.42432", "0.00056"]], [["328.15"], ["0.894"], ["101"], ["1.40433", "0.00054"]], [["328.15"], ["0.9437"], ["101"], ["1.39109", "0.00058"]], [["328.15"], ["1"], ["101"], ["1.37055", "0.00053"]]], "solvent": null, "expmeth": "Standard Abbe refractometry", "constr": [], "ref": {"title": "Thermophysical Properties of the Pure Ionic Liquid 1-Butyl-1-methylpyrrolidinium Dicyanamide and Its Binary Mixtures with Alcohols", "full": "Gonzalez, E. J.; Gonzalez, B.; Macedo, E. A. (2013) J. Chem. Eng. Data 58(6), 1440-1448."}, "phases": ["Liquid"]}