{"title": "Refraction, surface tension, and speed of sound: Refractive index (Na D-line)", "components": [{"sample": [["Source:", "synthesized by the authors"], ["Initial purification:", "estimated by the compiler"], ["Initial purity:", "98 mass %"], ["Final purification:", "Karl Fischer titration"], ["Final purity:", "0.0118 water mass %(dried by vacuum heating)"]], "name": "1-hexyl-3-methylimidazolium hexafluorophosphate", "formula": "C<SUB>10</SUB>H<SUB>19</SUB>F<SUB>6</SUB>N<SUB>2</SUB>P", "mw": "312.24", "idout": "ABICIG"}], "dhead": [["Temperature, K", null], ["Pressure, kPa", null], ["Refractive index (Na D-line)", "Liquid"]], "footer": "", "data": [[["293.15"], ["100.7"], ["1.41958", "0.0017"]], [["298.15"], ["100.7"], ["1.41832", "0.0017"]], [["303.15"], ["100.7"], ["1.41692", "0.0017"]], [["308.15"], ["100.7"], ["1.41564", "0.0017"]], [["313.15"], ["100.7"], ["1.41422", "0.0017"]], [["318.15"], ["100.7"], ["1.41306", "0.0017"]], [["323.15"], ["100.7"], ["1.41175", "0.0017"]]], "solvent": null, "expmeth": "Standard Abbe refractometry", "ref": {"title": "Investigation on thermophysical and excess properties of binary mixtures of imidazolium based ionic liquids at temperatures (293.15 to 323.15) K: III [Cnmim][PF6] (n = 4, 6, 8) + THF", "full": "Vaid, Z.; More, U.; Ijardar, S. P.; Malek, N. I. (2015) J. Chem. Thermodyn. 86, 143-153."}, "constr": [], "phases": ["Liquid"]}