{"constr": [], "ref": {"title": "Measurement of activity coefficients at infinite dilution of organic solutes in the ionic liquid 1-ethyl-3-methylimidazolium 2-(2-methoxyethoxy) ethylsulfate at T = (308.15, 313.15, 323.15 and 333.15) K using gas + liquid chromatography", "full": "Bahadur, I.; Govender, B. B.; Osman, K.; Williams-Wynn, M. D.; Nelson, W. M.; Naidoo, P.; Ramjugernath, D. (2014) J. Chem. Thermodyn. 70, 245-252."}, "phases": ["Liquid"], "components": [{"sample": [["Source:", "commercial source"], ["Initial purification:", "stated by supplier"], ["Initial purity:", "98 mass %"], ["Final purification:", "Karl Fischer titration"], ["Final purity:", "0.05 water mass %(dried by vacuum heating)"]], "name": "1-ethyl-3-methylimidazolium 2-(2-methoxyethoxy) ethylsulfate", "formula": "C<SUB>11</SUB>H<SUB>22</SUB>N<SUB>2</SUB>O<SUB>6</SUB>S", "idout": "ABHjxw", "mw": "310.37"}], "title": "Refraction, surface tension, and speed of sound: Refractive index (Na D-line)", "dhead": [["Temperature, K", null], ["Pressure, kPa", null], ["Refractive index (Na D-line)", "Liquid"]], "data": [[["308.2"], ["101.325"], ["1.47929", "0.00051"]], [["313.2"], ["101.325"], ["1.47565", "0.00051"]], [["323.2"], ["101.325"], ["1.47281", "0.00051"]], [["333.2"], ["101.325"], ["1.46995", "0.00051"]]], "solvent": null, "footer": "", "expmeth": "Standard Abbe refractometry"}