{"constr": [], "ref": {"title": "Synthesis and characterization of eight hydrophilic imidazolium-based ionic liquids and their application on enhanced oil recovery", "full": "Yousefi, M.; Naseri, A.; Abdouss, M.; Beigi, A.A. M. (2017) J. Mol. Liq. 248, 370-377."}, "phases": ["Liquid"], "title": "Refraction, surface tension, and speed of sound: Refractive index (Na D-line)", "components": [{"mw": "230.78", "idout": "AAsTjr", "name": "1-methyl-3-octylimidazolium chloride", "formula": "C<SUB>12</SUB>H<SUB>23</SUB>ClN<SUB>2</SUB>", "sample": [["Source:", "synthesized by the authors"], ["Purification:", "NMR (proton);Karl Fischer titration"], ["Purity:", "99 mass %;0.064 water mass %(dried by vacuum heating;solvent extraction)"]]}], "dhead": [["Temperature, K", null], ["Pressure, kPa", null], ["Refractive index (Na D-line)", "Liquid"]], "footer": "", "data": [[["283.15"], ["101.325"], ["1.51162", "0.00053"]], [["293.15"], ["101.325"], ["1.51011", "0.00053"]], [["298.15"], ["101.325"], ["1.50867", "0.00053"]], [["303.15"], ["101.325"], ["1.50721", "0.00053"]], [["313.15"], ["101.325"], ["1.5043", "0.0005"]], [["323.15"], ["101.325"], ["1.50152", "0.00053"]], [["333.15"], ["101.325"], ["1.49871", "0.00053"]], [["343.15"], ["101.325"], ["1.49587", "0.00053"]], [["353.15"], ["101.325"], ["1.49343", "0.00053"]], [["363.15"], ["101.325"], ["1.49079", "0.00053"]]], "solvent": null, "expmeth": "Standard Abbe refractometry"}