{"dhead": [["Temperature, K", null], ["Pressure, kPa", null], ["Refractive index (Na D-line)", "Liquid"]], "title": "Refraction, surface tension, and speed of sound: Refractive index (Na D-line)", "components": [{"idout": "AAqHiH", "mw": "219.13", "name": "1-butyl-3-methylimidazolium bromide", "formula": "C<SUB>8</SUB>H<SUB>15</SUB>BrN<SUB>2</SUB>", "sample": [["Source:", "synthesized by the authors"], ["Purity:", "0.03 water mass %(chemical reagent treatment;dried with chemical reagent;dried by vacuum heating)"]]}], "expmeth": "Standard Abbe refractometry", "footer": "", "data": [[["298.3"], ["101.325"], ["1.54", "0.01"]], [["303.2"], ["101.325"], ["1.54", "0.01"]], [["308"], ["101.325"], ["1.54", "0.01"]], [["313.2"], ["101.325"], ["1.54", "0.01"]], [["318"], ["101.325"], ["1.54", "0.01"]], [["323"], ["101.325"], ["1.54", "0.01"]]], "solvent": null, "ref": {"title": "Refractive index and heat capacity of 1-butyl-3-methylimidazolium bromide and 1-butyl-3-methylimidazolium tetrafluoroborate, and vapor pressure of binary systems for 1-butyl-3-methylimidazolium bromide + trifluoroethanol and 1-butyl-3-methylimidazolium tetrafluoroborate + trifluoroethanol", "full": "Kim, K.-S.; Shin, B.-K.; Ziegler, F. (2004) Fluid Phase Equilib. 218(2), 215-220."}, "constr": [], "phases": ["Liquid"]}