{"phases": ["Liquid"], "ref": {"full": "Chen, Z.; Huo, Y.; Cao, J.; Xu, L.; Zhang, S. (2016) Ind. Eng. Chem. Res. 55, 11589-11596.", "title": "Physicochemical Properties of Ether-Functionalized Ionic Liquids: Understanding Their Irregular Variations with the Ether Chain Length"}, "constr": [], "expmeth": "Standard Abbe refractometry", "data": [[["283.15"], ["101.325"], ["1.4312", "0.0005"]], [["293.15"], ["101.325"], ["1.4282", "0.0005"]], [["298.15"], ["101.325"], ["1.4269", "0.0005"]], [["303.15"], ["101.325"], ["1.4254", "0.0005"]], [["313.15"], ["101.325"], ["1.4228", "0.0005"]], [["323.15"], ["101.325"], ["1.4196", "0.0005"]], [["333.15"], ["101.325"], ["1.4172", "0.0005"]], [["343.15"], ["101.325"], ["1.4147", "0.0005"]], [["353.15"], ["101.325"], ["1.4118", "0.0005"]]], "solvent": null, "footer": "", "dhead": [["Temperature, K", null], ["Pressure, kPa", null], ["Refractive index (Na D-line)", "Liquid"]], "components": [{"mw": "435.36", "idout": "ABflRC", "formula": "C<SUB>10</SUB>H<SUB>15</SUB>F<SUB>6</SUB>N<SUB>3</SUB>O<SUB>5</SUB>S<SUB>2</SUB>", "name": "1-(2-ethoxyethyl)-3-methylimidazolium bis((trifluoromethyl)sulfonyl)amide", "sample": [["Source:", "synthesized by the authors"], ["Purification:", "NMR (proton);Karl Fischer titration;ion-selective electrode"], ["Purity:", "99.3 mass %;0.00641 water mass %;0.0080 halide impurity mass %(dried by vacuum heating)"]]}], "title": "Refraction, surface tension, and speed of sound: Refractive index (Na D-line)"}