{"phases": ["Liquid"], "constr": [], "ref": {"full": "Larriba, M.; Garcia, S.; Navarro, P.; Garcia, J.; Rodriguez, F. (2013) J. Chem. Eng. Data 58(6), 1496-1504.", "title": "Physical Characterization of an Aromatic Extraction Solvent Formed by [bpy][BF4] and [4bmpy][Tf2N] Mixed Ionic Liquids"}, "expmeth": "Standard Abbe refractometry", "data": [[["293.15"], ["101.325"], ["1.448", "0.0007"]], [["303.15"], ["101.325"], ["1.4449", "0.0007"]], [["313.15"], ["101.325"], ["1.4419", "0.0007"]], [["323.15"], ["101.325"], ["1.4388", "0.0007"]], [["333.15"], ["101.325"], ["1.4358", "0.0007"]], [["343.15"], ["101.325"], ["1.4328", "0.0007"]], [["353.15"], ["101.325"], ["1.4298", "0.0007"]]], "solvent": null, "footer": "", "dhead": [["Temperature, K", null], ["Pressure, kPa", null], ["Refractive index (Na D-line)", "Liquid"]], "components": [{"name": "1-butyl-4-methylpyridinium bis((trifluoromethyl)sulfonyl)amide", "formula": "C<SUB>12</SUB>H<SUB>16</SUB>F<SUB>6</SUB>N<SUB>2</SUB>O<SUB>4</SUB>S<SUB>2</SUB>", "idout": "ABenmT", "mw": "430.38", "sample": [["Source:", "commercial source"], ["Initial purification:", "stated by supplier"], ["Initial purity:", "99 mass %"], ["Final purification:", "ion chromatography;Karl Fischer titration"], ["Final purity:", "0.01 halide impurity mass %;0.01 water mass %(none used)"]]}], "title": "Refraction, surface tension, and speed of sound: Refractive index (Na D-line)"}