{"constr": [], "ref": {"full": "Taysun, M. B.; Sert, E.; Atalay, F. S. (2016) J. Mol. Liq. 223, 845-852.", "title": "Physical properties of benzyltrimethylammonium chloride based deep eutectic solvents and employment as catalyst"}, "phases": ["Liquid"], "title": "Refraction, surface tension, and speed of sound: Refractive index (Na D-line)", "components": [{"idout": "AAjkLa", "mw": "185.69", "formula": "C<SUB>10</SUB>H<SUB>16</SUB>ClN", "name": "trimethylbenzylammonium chloride", "sample": [["Source:", "commercial source"], ["Purification:", "stated by supplier"], ["Purity:", "99 mass %"]]}, {"formula": "C<SUB>7</SUB>H<SUB>8</SUB>O<SUB>3</SUB>S", "name": "4-methylbenzenesulfonic acid", "mw": "172.20", "idout": "AAhFvr", "sample": [["Source:", "commercial source"], ["Purification:", "stated by supplier"], ["Purity:", "98 mass %"]]}], "dhead": [["Temperature, K", null], ["Pressure, kPa", null], ["Mole fraction of trimethylbenzylammonium chloride", "Liquid"], ["Refractive index (Na D-line)", "Liquid"]], "footer": "", "data": [[["293.13"], ["101"], ["0.3"], ["1.54846", "0.00067"]], [["298.02"], ["101"], ["0.3"], ["1.54642", "0.00063"]], [["303.07"], ["101"], ["0.3"], ["1.54502", "0.00059"]], [["308.2"], ["101"], ["0.3"], ["1.54362", "0.00061"]], [["313.17"], ["101"], ["0.3"], ["1.54196", "0.00063"]], [["317.98"], ["101"], ["0.3"], ["1.5403", "0.0006"]], [["322.95"], ["101"], ["0.3"], ["1.53903", "0.0006"]], [["328.08"], ["101"], ["0.3"], ["1.53737", "0.00061"]], [["333.13"], ["101"], ["0.3"], ["1.53584", "0.00061"]]], "solvent": null, "expmeth": "Standard Abbe refractometry"}