{"phases": ["Liquid"], "constr": [], "ref": {"full": "Zheng, X.; Gong, Y.; Jiang, W.; Yu, K.; Tong, J.; Yang, J. (2019) J. Mol. Liq. 288, 111004.", "title": "The application of molar surface Gibbs energy to predicting ILs' properties"}, "expmeth": "Standard Abbe refractometry", "data": [[["0"], ["288.15"], ["100"], ["1.507", "0.0041"]], [["0"], ["293.15"], ["100"], ["1.5056", "0.0041"]], [["0"], ["298.15"], ["100"], ["1.5041", "0.0041"]], [["0"], ["303.15"], ["100"], ["1.5024", "0.0041"]], [["0"], ["308.15"], ["100"], ["1.5007", "0.0041"]], [["0"], ["313.15"], ["100"], ["1.4991", "0.0041"]], [["0"], ["318.15"], ["100"], ["1.4977", "0.0041"]], [["0"], ["323.15"], ["100"], ["1.496", "0.0041"]], [["0"], ["328.15"], ["100"], ["1.4946", "0.0041"]], [["0.004692"], ["288.15"], ["100"], ["1.5052", "0.0041"]], [["0.004692"], ["293.15"], ["100"], ["1.5038", "0.0041"]], [["0.004692"], ["298.15"], ["100"], ["1.5023", "0.0041"]], [["0.004692"], ["303.15"], ["100"], ["1.5007", "0.0041"]], [["0.004692"], ["308.15"], ["100"], ["1.4991", "0.0041"]], [["0.004692"], ["313.15"], ["100"], ["1.4975", "0.0041"]], [["0.004692"], ["318.15"], ["100"], ["1.4961", "0.0041"]], [["0.004692"], ["323.15"], ["100"], ["1.4945", "0.0041"]], [["0.004692"], ["328.15"], ["100"], ["1.493", "0.0041"]], [["0.007965"], ["288.15"], ["100"], ["1.5038", "0.0041"]], [["0.007965"], ["293.15"], ["100"], ["1.5024", "0.0041"]], [["0.007965"], ["298.15"], ["100"], ["1.5009", "0.0041"]], [["0.007965"], ["303.15"], ["100"], ["1.4994", "0.0041"]], [["0.007965"], ["308.15"], ["100"], ["1.4978", "0.0041"]], [["0.007965"], ["313.15"], ["100"], ["1.4963", "0.0041"]], [["0.007965"], ["318.15"], ["100"], ["1.4949", "0.0041"]], [["0.007965"], ["323.15"], ["100"], ["1.4933", "0.0041"]], [["0.007965"], ["328.15"], ["100"], ["1.4918", "0.0041"]], [["0.01098"], ["288.15"], ["100"], ["1.5027", "0.0041"]], [["0.01098"], ["293.15"], ["100"], ["1.5013", "0.0041"]], [["0.01098"], ["298.15"], ["100"], ["1.4998", "0.0041"]], [["0.01098"], ["303.15"], ["100"], ["1.4982", "0.0041"]], [["0.01098"], ["308.15"], ["100"], ["1.4967", "0.0041"]], [["0.01098"], ["313.15"], ["100"], ["1.4952", "0.0041"]], [["0.01098"], ["318.15"], ["100"], ["1.4938", "0.0041"]], [["0.01098"], ["323.15"], ["100"], ["1.4922", "0.0041"]], [["0.01098"], ["328.15"], ["100"], ["1.4908", "0.0041"]], [["0.01397"], ["288.15"], ["100"], ["1.5016", "0.0041"]], [["0.01397"], ["293.15"], ["100"], ["1.5002", "0.0041"]], [["0.01397"], ["298.15"], ["100"], ["1.4987", "0.0041"]], [["0.01397"], ["303.15"], ["100"], ["1.4973", "0.0041"]], [["0.01397"], ["308.15"], ["100"], ["1.4958", "0.0041"]], [["0.01397"], ["313.15"], ["100"], ["1.4943", "0.0041"]], [["0.01397"], ["318.15"], ["100"], ["1.4929", "0.0041"]], [["0.01397"], ["323.15"], ["100"], ["1.4913", "0.0041"]], [["0.01397"], ["328.15"], ["100"], ["1.4899", "0.0041"]], [["0.01698"], ["288.15"], ["100"], ["1.5004", "0.0041"]], [["0.01698"], ["293.15"], ["100"], ["1.4989", "0.0041"]], [["0.01698"], ["298.15"], ["100"], ["1.4975", "0.0041"]], [["0.01698"], ["303.15"], ["100"], ["1.4961", "0.0041"]], [["0.01698"], ["308.15"], ["100"], ["1.4947", "0.0041"]], [["0.01698"], ["313.15"], ["100"], ["1.4932", "0.0041"]], [["0.01698"], ["318.15"], ["100"], ["1.4918", "0.0041"]], [["0.01698"], ["323.15"], ["100"], ["1.4903", "0.0041"]], [["0.01698"], ["328.15"], ["100"], ["1.4887", "0.0041"]]], "solvent": null, "footer": "", "dhead": [["Weight fraction of water", "Liquid"], ["Temperature, K", null], ["Pressure, kPa", null], ["Refractive index (Na D-line)", "Liquid"]], "components": [{"name": "1-butyl-3-methylimidazolium taurate", "formula": "C<SUB>10</SUB>H<SUB>21</SUB>N<SUB>3</SUB>O<SUB>3</SUB>S", "mw": "263.36", "idout": "AAyhgg", "sample": [["Source:", "synthesized by the authors"], ["Purification:", "NMR (proton);Karl Fischer titration"], ["Purity:", "97 % (basis not specified);0.469 water mass %(dried by vacuum heating)"]]}, {"formula": "H<SUB>2</SUB>O", "name": "water", "idout": "AADYJk", "mw": "18.02", "sample": [["Source:", "commercial source"], ["Purification:", "estimated by the compiler"], ["Purity:", "99.9 mass %(fractional distillation)"]]}], "title": "Refraction, surface tension, and speed of sound: Refractive index (Na D-line)"}