{"constr": [], "ref": {"full": "Fang, D.-W.; Yan, Q.; Li, D.; Xia, L.-X.; Zang, S.-L. (2014) J. Chem. Thermodyn. 79, 12-18.", "title": "Estimation of physicochemical properties of 1-alkyl-3-methylimidazolium glutamate"}, "phases": ["Liquid"], "title": "Refraction, surface tension, and speed of sound: Refractive index (Na D-line)", "components": [{"idout": "ABINaR", "mw": "313.40", "formula": "C<SUB>15</SUB>H<SUB>27</SUB>N<SUB>3</SUB>O<SUB>4</SUB>", "name": "1-hexyl-3-methylimidazolium DL-glutamate", "sample": [["Source:", "synthesized by the authors"], ["Purification:", "estimation;ion chromatography"], ["Purity:", "99 mass %;0.01 halide impurity mass %(dried by vacuum heating;solvent extraction)"]]}, {"sample": [["Source:", "commercial source"], ["Purification:", "estimated by the compiler"], ["Purity:", "99.8 mass %(fractional distillation)"]], "idout": "AADYJk", "mw": "18.02", "formula": "H<SUB>2</SUB>O", "name": "water"}], "dhead": [["Weight fraction of water", "Liquid"], ["Temperature, K", null], ["Pressure, kPa", null], ["Refractive index (Na D-line)", "Liquid"]], "footer": "", "data": [[["0.0092"], ["293.15"], ["100"], ["1.5159", "0.0005"]], [["0.0092"], ["298.15"], ["100"], ["1.5147", "0.0005"]], [["0.0092"], ["303.15"], ["100"], ["1.5133", "0.0005"]], [["0.0092"], ["308.15"], ["100"], ["1.512", "0.0005"]], [["0.0092"], ["313.15"], ["100"], ["1.5108", "0.0005"]], [["0.0092"], ["318.15"], ["100"], ["1.5096", "0.0005"]], [["0.0092"], ["323.15"], ["100"], ["1.5088", "0.0005"]], [["0.0092"], ["328.15"], ["100"], ["1.5075", "0.0005"]], [["0.0113"], ["293.15"], ["100"], ["1.5161", "0.0005"]], [["0.0113"], ["298.15"], ["100"], ["1.5148", "0.0005"]], [["0.0113"], ["303.15"], ["100"], ["1.5134", "0.0005"]], [["0.0113"], ["308.15"], ["100"], ["1.5121", "0.0005"]], [["0.0113"], ["313.15"], ["100"], ["1.5109", "0.0005"]], [["0.0113"], ["318.15"], ["100"], ["1.5098", "0.0005"]], [["0.0113"], ["323.15"], ["100"], ["1.509", "0.0005"]], [["0.0113"], ["328.15"], ["100"], ["1.5077", "0.0005"]], [["0.0126"], ["293.15"], ["100"], ["1.5162", "0.0005"]], [["0.0126"], ["298.15"], ["100"], ["1.5149", "0.0005"]], [["0.0126"], ["303.15"], ["100"], ["1.5135", "0.0005"]], [["0.0126"], ["308.15"], ["100"], ["1.5122", "0.0005"]], [["0.0126"], ["313.15"], ["100"], ["1.511", "0.0005"]], [["0.0126"], ["318.15"], ["100"], ["1.51", "0.0005"]], [["0.0126"], ["323.15"], ["100"], ["1.5092", "0.0005"]], [["0.0126"], ["328.15"], ["100"], ["1.5079", "0.0005"]], [["0.0147"], ["293.15"], ["100"], ["1.5164", "0.0005"]], [["0.0147"], ["298.15"], ["100"], ["1.5151", "0.0005"]], [["0.0147"], ["303.15"], ["100"], ["1.5137", "0.0005"]], [["0.0147"], ["308.15"], ["100"], ["1.5124", "0.0005"]], [["0.0147"], ["313.15"], ["100"], ["1.5112", "0.0005"]], [["0.0147"], ["318.15"], ["100"], ["1.5102", "0.0005"]], [["0.0147"], ["323.15"], ["100"], ["1.5094", "0.0005"]], [["0.0147"], ["328.15"], ["100"], ["1.5081", "0.0005"]], [["0.0159"], ["293.15"], ["100"], ["1.5165", "0.0005"]], [["0.0159"], ["298.15"], ["100"], ["1.5152", "0.0005"]], [["0.0159"], ["303.15"], ["100"], ["1.5138", "0.0005"]], [["0.0159"], ["308.15"], ["100"], ["1.5125", "0.0005"]], [["0.0159"], ["313.15"], ["100"], ["1.5113", "0.0005"]], [["0.0159"], ["318.15"], ["100"], ["1.5103", "0.0005"]], [["0.0159"], ["323.15"], ["100"], ["1.5096", "0.0005"]], [["0.0159"], ["328.15"], ["100"], ["1.5082", "0.0005"]]], "solvent": null, "expmeth": "Standard Abbe refractometry"}