{"ref": {"title": "Prediction and measurement of phase equilibria for the extraction of BTX from naphtha reformate using BMIMPF6 ionic liquid", "full": "Al-Rashed, O. A.; Fahim, M. A. A. ].; Shaaban, M. (2014) Fluid Phase Equilib. 363, 248-262."}, "constr": [], "phases": ["Liquid"], "title": "Refraction, surface tension, and speed of sound: Refractive index (Na D-line)", "components": [{"sample": [["Source:", "synthesized by the authors"], ["Initial purification:", "NMR (proton)"], ["Initial purity:", "94.1 mol %"], ["Final purification:", "NMR (proton);Karl Fischer titration"], ["Final purity:", "98.4 mol %;0.02 water mass %(dried by vacuum heating)"]], "mw": "284.19", "idout": "ABChJv", "name": "1-butyl-3-methylimidazolium hexafluorophosphate", "formula": "C<SUB>8</SUB>H<SUB>15</SUB>F<SUB>6</SUB>N<SUB>2</SUB>P"}], "dhead": [["Temperature, K", null], ["Pressure, kPa", null], ["Refractive index (Na D-line)", "Liquid"]], "footer": "", "data": [[["298.15"], ["101.325"], ["1.40926", "0.0006"]]], "solvent": null, "expmeth": "Standard Abbe refractometry"}