{"constr": [], "ref": {"full": "Bhattacharjee, A.; Carvalho, P. J.; Coutinho, J. A. P. (2014) Fluid Phase Equilib. 375, 80-88.", "title": "The effect of the cation aromaticity upon the thermophysical properties of piperidinium- and pyridinium-based Ionic Liquids"}, "phases": ["Liquid"], "components": [{"sample": [["Source:", "commercial source"], ["Initial purification:", "stated by supplier"], ["Initial purity:", "99 mass %"], ["Final purification:", "Karl Fischer titration;NMR (proton)"], ["Final purity:", "0.0101 water mass %;99 mass %(dried by vacuum heating)"]], "mw": "430.38", "idout": "ABenCa", "name": "1-butyl-3-methylpyridinium bis[(trifluoromethyl)sulfonyl]amide", "formula": "C<SUB>12</SUB>H<SUB>16</SUB>F<SUB>6</SUB>N<SUB>2</SUB>O<SUB>4</SUB>S<SUB>2</SUB>"}], "title": "Refraction, surface tension, and speed of sound: Refractive index (Na D-line)", "dhead": [["Temperature, K", null], ["Pressure, kPa", null], ["Refractive index (Na D-line)", "Liquid"]], "data": [[["288.15"], ["101.325"], ["1.44845", "0.00037"]], [["293.15"], ["101.325"], ["1.44694", "0.00037"]], [["298.15"], ["101.325"], ["1.44566", "0.00037"]], [["303.15"], ["101.325"], ["1.44397", "0.00037"]], [["308.15"], ["101.325"], ["1.44249", "0.00037"]], [["313.15"], ["101.325"], ["1.44103", "0.00037"]], [["318.15"], ["101.325"], ["1.43955", "0.00037"]], [["323.15"], ["101.325"], ["1.4381", "0.00037"]], [["328.15"], ["101.325"], ["1.43668", "0.00037"]], [["333.15"], ["101.325"], ["1.43524", "0.00037"]], [["338.15"], ["101.325"], ["1.43382", "0.00037"]], [["343.15"], ["101.325"], ["1.4324", "0.00037"]], [["348.15"], ["101.325"], ["1.43097", "0.00037"]], [["353.15"], ["101.325"], ["1.42953", "0.00037"]]], "solvent": null, "footer": "", "expmeth": "Standard Abbe refractometry"}