{"ref": {"full": "Vieira, N. S. M.; Luis, A.; Reis, P. M.; Carvalho, P. J.; Lopes-da-Silva, J. A.; Esperanca, J. M. S. S.; Araujo, J. M. M.; Rebelo, L. P. N.; Freire, M. G.; Pereiro, A. B. (2016) J. Chem. Thermodyn. 97, 354-361.", "title": "Fluorination effects on the thermodynamic, thermophysical and surface properties of ionic liquids"}, "constr": [], "phases": ["Liquid"], "components": [{"mw": "385.23", "idout": "ABWEzw", "name": "1-ethyl-3-methylpyridinium perfluoropentanoate", "formula": "C<SUB>13</SUB>H<SUB>12</SUB>F<SUB>9</SUB>NO<SUB>2</SUB>", "sample": [["Source:", "synthesized by the authors"], ["Purification:", "NMR (proton);Karl Fischer titration;titration"], ["Purity:", "99 mol %;0.01 water mass %;0.01 halide impurity mol %(dried by vacuum heating)"]]}], "title": "Refraction, surface tension, and speed of sound: Refractive index (Na D-line)", "dhead": [["Temperature, K", null], ["Pressure, kPa", null], ["Refractive index (Na D-line)", "Liquid"]], "data": [[["293.15"], ["101.325"], ["1.42282", "0.00037"]], [["298.15"], ["101.325"], ["1.42137", "0.00037"]], [["303.15"], ["101.325"], ["1.4199", "0.00037"]], [["308.15"], ["101.325"], ["1.41844", "0.00037"]], [["313.15"], ["101.325"], ["1.41697", "0.00037"]], [["318.15"], ["101.325"], ["1.41553", "0.00037"]], [["323.15"], ["101.325"], ["1.41406", "0.00037"]], [["328.15"], ["101.325"], ["1.4126", "0.00037"]], [["333.15"], ["101.325"], ["1.41114", "0.00037"]], [["338.15"], ["101.325"], ["1.40955", "0.00037"]], [["343.15"], ["101.325"], ["1.40811", "0.00037"]], [["348.15"], ["101.325"], ["1.40672", "0.00037"]], [["353.15"], ["101.325"], ["1.40531", "0.00037"]]], "solvent": null, "footer": "", "expmeth": "Standard Abbe refractometry"}