{"ref": {"full": "Fang, D.; Li, L.; Miao, J.; Gao, P.; Zhang, Y.; Hong, M.; Liu, J.; Wei, J. (2022) J. Taiwan Inst. Chem. Eng. 133, 104275.", "title": "Insight into the solute-solvent interactions by physicochemical and excess properties in binary systems of the ether- and allyl-based functionalized ionic liquids with acetonitrile"}, "constr": [], "phases": ["Liquid"], "dhead": [["Temperature, K", null], ["Pressure, kPa", null], ["Refractive index (Na D-line)", "Liquid"]], "components": [{"name": "1-allyl-3-methyl-1H-imidazolium bis((trifluoromethyl)sulfonyl)amide", "formula": "C<SUB>9</SUB>H<SUB>11</SUB>F<SUB>6</SUB>N<SUB>3</SUB>O<SUB>4</SUB>S<SUB>2</SUB>", "idout": "ABZdDq", "mw": "403.31", "sample": [["Source:", "synthesized by the authors"], ["Purification:", "estimated by the compiler"], ["Purity:", "98 mass %(dried by vacuum heating)"]]}], "title": "Refraction, surface tension, and speed of sound: Refractive index (Na D-line)", "expmeth": "Standard Abbe refractometry", "data": [[["288.15"], ["100"], ["1.4332", "0.0006"]], [["293.15"], ["100"], ["1.4319", "0.0006"]], [["298.15"], ["100"], ["1.4303", "0.0006"]], [["303.15"], ["100"], ["1.4288", "0.0006"]], [["308.15"], ["100"], ["1.4279", "0.0006"]], [["313.15"], ["100"], ["1.4262", "0.0006"]], [["318.15"], ["100"], ["1.425", "0.0006"]]], "solvent": null, "footer": ""}