{"components": [{"formula": "C<SUB>8</SUB>H<SUB>15</SUB>IN<SUB>2</SUB>", "name": "1-butyl-3-methylimidazolium iodide", "mw": "266.13", "idout": "AAzJkz", "sample": [["Source:", "synthesized by the authors"], ["Purification:", "Karl Fischer titration;estimated by the compiler"], ["Purity:", "0.0015 water mass %;99 mass %(dried by vacuum heating)"]]}], "title": "Refraction, surface tension, and speed of sound: Refractive index (Na D-line)", "dhead": [["Temperature, K", null], ["Pressure, kPa", null], ["Refractive index (Na D-line)", "Liquid"]], "data": [[["298.15"], ["101.325"], ["1.57", "0.003"]], [["303.15"], ["101.325"], ["1.568", "0.003"]], [["308.15"], ["101.325"], ["1.567", "0.003"]], [["313.15"], ["101.325"], ["1.566", "0.003"]], [["318.15"], ["101.325"], ["1.564", "0.003"]], [["323.15"], ["101.325"], ["1.561", "0.003"]]], "solvent": null, "footer": "", "expmeth": "Standard Abbe refractometry", "constr": [], "ref": {"full": "Kim, K.-S. (2009) Korean J. Chem. Eng. 26(3), 770-774.", "title": "Physical and electrochemical properties of lithium-doped 1-butyl-3-methylimidazolium salts"}, "phases": ["Liquid"]}