{"constr": [], "ref": {"full": "Haghani, A.; Hoffmann, M. M.; Iloukhani, H. (2021) J. Chem. Eng. Data 66(5), 1956-1969.", "title": "Density, Speed of Sound, and Refractive Index of Binary Mixtures of 1-Butyl-3-methylimidazolium Thiocyanate + 2-Alkanols (C3-C6) at Different Temperatures T = (288.15-338.15) K"}, "phases": ["Liquid"], "title": "Refraction, surface tension, and speed of sound: Refractive index (Na D-line)", "components": [{"sample": [["Source:", "commercial source"], ["Purification:", "stated by supplier"], ["Purity:", "99 mass %"]], "formula": "C<SUB>9</SUB>H<SUB>15</SUB>N<SUB>3</SUB>S", "name": "1-butyl-3-methylimidazolium thiocyanate", "mw": "197.30", "idout": "AAlxZE"}], "dhead": [["Temperature, K", null], ["Pressure, kPa", null], ["Refractive index (Na D-line)", "Liquid"]], "footer": "", "data": [[["288.15"], ["81.5"], ["1.54089", "0.002"]], [["298.15"], ["81.5"], ["1.53744", "0.002"]], [["308.15"], ["81.5"], ["1.53433", "0.002"]], [["318.15"], ["81.5"], ["1.53153", "0.002"]], [["328.15"], ["81.5"], ["1.52798", "0.002"]], [["338.15"], ["81.5"], ["1.52523", "0.002"]]], "solvent": null, "expmeth": "Standard Abbe refractometry"}