{"ref": {"title": "The static and transport properties of ether-based perrhenate ionic liquids and the ionic parachor application", "full": "Ma, Xiaoxue; Li, Fei; Kui, Si'ao; Song, Zongren; Gong, Lu; Fang, Dawei (2021) J. Chem. Thermodyn. 157, 106393."}, "constr": [], "phases": ["Liquid"], "components": [{"sample": [["Source:", "synthesized by the authors"], ["Purification:", "NMR (proton);Karl Fischer titration"], ["Purity:", "99 mass %;0.0856 water mass %(dried by vacuum heating)"]], "formula": "C<SUB>8</SUB>H<SUB>15</SUB>N<SUB>2</SUB>O<SUB>5</SUB>Re", "name": "1-(2-methoxyethyl)-3-ethylimidazolium perrhenate", "mw": "405.42", "idout": "ABZyDm"}], "title": "Refraction, surface tension, and speed of sound: Refractive index (Na D-line)", "dhead": [["Pressure, kPa", null], ["Temperature, K", null], ["Refractive index (Na D-line)", "Liquid"]], "data": [[["100"], ["293.15"], ["1.536", "0.003"]], [["100"], ["298.15"], ["1.535", "0.003"]], [["100"], ["303.15"], ["1.533", "0.003"]], [["100"], ["308.15"], ["1.531", "0.003"]], [["100"], ["313.15"], ["1.53", "0.003"]], [["100"], ["318.15"], ["1.528", "0.003"]], [["100"], ["323.15"], ["1.527", "0.003"]], [["100"], ["328.15"], ["1.525", "0.003"]], [["100"], ["333.15"], ["1.524", "0.003"]], [["100"], ["338.15"], ["1.522", "0.003"]]], "solvent": null, "footer": "", "expmeth": "Standard Abbe refractometry"}