{"ref": {"title": "Experimental Liquid-Liquid Equilibria of 1-Alkyl-3-methylimidazolium Hexafluorophosphate with 1-Alcohols", "full": "Pereiro, A. B.; Rodriguez, A. (2007) J. Chem. Eng. Data 52(4), 1408-1412."}, "constr": [], "phases": ["Liquid"], "title": "Refraction, surface tension, and speed of sound: Refractive index (Na D-line)", "components": [{"sample": [["Source:", "commercial source"], ["Initial purification:", "stated by supplier"], ["Initial purity:", "98 mass %"], ["Final purification:", "Karl Fischer titration"], ["Final purity:", "0.03 water mass %(dried by vacuum heating)"]], "mw": "312.24", "idout": "ABICIG", "formula": "C<SUB>10</SUB>H<SUB>19</SUB>F<SUB>6</SUB>N<SUB>2</SUB>P", "name": "1-hexyl-3-methylimidazolium hexafluorophosphate"}], "dhead": [["Temperature, K", null], ["Pressure, kPa", null], ["Refractive index (Na D-line)", "Liquid"]], "footer": "", "data": [[["298.15"], ["101.325"], ["1.41787", "0.0011"]]], "solvent": null, "expmeth": "Standard Abbe refractometry"}