{"components": [{"mw": "170.21", "idout": "AAgmaR", "formula": "C<SUB>8</SUB>H<SUB>14</SUB>N<SUB>2</SUB>O<SUB>2</SUB>", "name": "1-ethyl-3-methylimidazolium acetate", "sample": [["Purity analysis:", "unspecified"], ["Purification:", "estimation"], ["Purity:", "99.999 mol %"]]}], "title": "Refraction, surface tension, and speed of sound: Refractive index (Na D-line)", "dhead": [["Temperature, K", null], ["Pressure, kPa", null], ["Refractive index (Na D-line)", "Liquid"]], "data": [[["293.15"], ["100"], ["1.50164", "0.00047"]], [["298.15"], ["100"], ["1.50007", "0.00047"]], [["303.15"], ["100"], ["1.49847", "0.00046"]], [["313.15"], ["100"], ["1.49553", "0.00045"]], [["323.15"], ["100"], ["1.49277", "0.00043"]], [["333.15"], ["100"], ["1.49028", "0.00045"]], [["343.15"], ["100"], ["1.48711", "0.00047"]]], "solvent": null, "footer": "", "expmeth": "Standard Abbe refractometry", "ref": {"title": "The influence of water on the thermophysical properties of 1-ethyl-3-methylimidazolium acetate", "full": "Queiros, C.S.G.P.; Paredes, X.; Avelino, T.F.S.; Bastos, D.E.N.; Ferreira, M.; Santos, F.J.V.; Santos, A.F.; Lopes, M.L.M.; Lourenco, M.J.V.; Pereira, H.; Castro, C.A. Nieto de (2020) J. Mol. Liq. 297, 111925."}, "constr": [], "phases": ["Liquid"]}