{"constr": [], "ref": {"title": "Physical and Excess Properties for Binary Mixtures of 1-Methyl-3-Octylimidazolium Tetrafluoroborate, [Omim][BF4], Ionic Liquid with Different Alcohols", "full": "Arce, A.; Rodil, E.; Soto, A. (2006) J. Solution Chem. 35, 63-78."}, "phases": ["Liquid"], "components": [{"sample": [["Source:", "commercial source"], ["Purification:", "stated by supplier"], ["Purity:", "99.7 mass %"]], "idout": "AAGIBL", "mw": "32.04", "formula": "CH<SUB>4</SUB>O", "name": "methanol"}, {"sample": [["Source:", "synthesized by the authors"], ["Initial purification:", "estimated by the compiler"], ["Initial purity:", "98 mass %"], ["Final purification:", "Karl Fischer titration;ion-selective electrode"], ["Final purity:", "0.0326 water mass %;0.75 halide impurity mass %(dried by vacuum heating)"]], "formula": "C<SUB>12</SUB>H<SUB>23</SUB>BF<SUB>4</SUB>N<SUB>2</SUB>", "name": "1-methyl-3-octylimidazolium tetrafluoroborate", "idout": "ABCNhW", "mw": "282.13"}], "title": "Refraction, surface tension, and speed of sound: Refractive index (Na D-line)", "dhead": [["Mole fraction of 1-methyl-3-octylimidazolium tetrafluoroborate", "Liquid"], ["Pressure, kPa", null], ["Temperature, K", null], ["Refractive index (Na D-line)", "Liquid"]], "data": [[["0.0495"], ["101"], ["298.15"], ["1.35534", "0.00032"]], [["0.0979"], ["101"], ["298.15"], ["1.3733", "0.00033"]], [["0.1997"], ["101"], ["298.15"], ["1.39501", "0.00034"]], [["0.2859"], ["101"], ["298.15"], ["1.40551", "0.00035"]], [["0.3648"], ["101"], ["298.15"], ["1.41222", "0.00036"]], [["0.4461"], ["101"], ["298.15"], ["1.41738", "0.00038"]], [["0.4922"], ["101"], ["298.15"], ["1.41982", "0.00039"]], [["0.5121"], ["101"], ["298.15"], ["1.42076", "0.00039"]], [["0.5709"], ["101"], ["298.15"], ["1.42339", "0.0004"]], [["0.5972"], ["101"], ["298.15"], ["1.42443", "0.00041"]], [["0.6485"], ["101"], ["298.15"], ["1.42629", "0.00042"]], [["0.785"], ["101"], ["298.15"], ["1.43029", "0.00045"]], [["0.9049"], ["101"], ["298.15"], ["1.43284", "0.00048"]]], "solvent": null, "footer": "", "expmeth": "Standard Abbe refractometry"}