{"components": [{"idout": "AAqmVN", "mw": "222.26", "name": "1-ethyl-3-methylimidazolium methyl sulfate", "formula": "C<SUB>7</SUB>H<SUB>14</SUB>N<SUB>2</SUB>O<SUB>4</SUB>S", "sample": [["Source:", "commercial source"], ["Purification:", "stated by supplier"], ["Purity:", "98 mass %"]]}, {"sample": [["Source:", "commercial source"], ["Purification:", "stated by supplier"], ["Purity:", "99.5 mass %"]], "formula": "C<SUB>3</SUB>H<SUB>6</SUB>O<SUB>2</SUB>", "name": "propanoic acid", "idout": "AAOMRa", "mw": "74.08"}], "title": "Refraction, surface tension, and speed of sound: Refractive index (Na D-line)", "dhead": [["Temperature, K", null], ["Mole fraction of 1-ethyl-3-methylimidazolium methyl sulfate", "Liquid"], ["Pressure, kPa", null], ["Refractive index (Na D-line)", "Liquid"]], "data": [[["293.15"], ["0"], ["100"], ["1.387", "0.006"]], [["293.15"], ["0.0449"], ["100"], ["1.399", "0.006"]], [["293.15"], ["0.0939"], ["100"], ["1.411", "0.006"]], [["293.15"], ["0.2013"], ["100"], ["1.43", "0.006"]], [["293.15"], ["0.3004"], ["100"], ["1.442", "0.006"]], [["293.15"], ["0.3959"], ["100"], ["1.451", "0.006"]], [["293.15"], ["0.5029"], ["100"], ["1.461", "0.006"]], [["293.15"], ["0.5917"], ["100"], ["1.465", "0.006"]], [["293.15"], ["0.6837"], ["100"], ["1.468", "0.006"]], [["293.15"], ["0.7941"], ["100"], ["1.47", "0.006"]], [["293.15"], ["0.8916"], ["100"], ["1.476", "0.006"]], [["293.15"], ["0.9472"], ["100"], ["1.48", "0.006"]], [["293.15"], ["1"], ["100"], ["1.483", "0.006"]], [["303.15"], ["0"], ["100"], ["1.383", "0.006"]], [["303.15"], ["0.0449"], ["100"], ["1.395", "0.006"]], [["303.15"], ["0.0939"], ["100"], ["1.407", "0.006"]], [["303.15"], ["0.2013"], ["100"], ["1.426", "0.006"]], [["303.15"], ["0.3004"], ["100"], ["1.439", "0.006"]], [["303.15"], ["0.3959"], ["100"], ["1.448", "0.006"]], [["303.15"], ["0.5029"], ["100"], ["1.457", "0.006"]], [["303.15"], ["0.5917"], ["100"], ["1.462", "0.006"]], [["303.15"], ["0.6837"], ["100"], ["1.465", "0.006"]], [["303.15"], ["0.7941"], ["100"], ["1.469", "0.006"]], [["303.15"], ["0.8916"], ["100"], ["1.473", "0.006"]], [["303.15"], ["0.9472"], ["100"], ["1.477", "0.006"]], [["303.15"], ["1"], ["100"], ["1.48", "0.006"]], [["313.15"], ["0"], ["100"], ["1.379", "0.006"]], [["313.15"], ["0.0449"], ["100"], ["1.393", "0.006"]], [["313.15"], ["0.0939"], ["100"], ["1.403", "0.006"]], [["313.15"], ["0.2013"], ["100"], ["1.423", "0.006"]], [["313.15"], ["0.3004"], ["100"], ["1.436", "0.006"]], [["313.15"], ["0.3959"], ["100"], ["1.445", "0.006"]], [["313.15"], ["0.5029"], ["100"], ["1.454", "0.006"]], [["313.15"], ["0.5917"], ["100"], ["1.459", "0.006"]], [["313.15"], ["0.6837"], ["100"], ["1.461", "0.006"]], [["313.15"], ["0.7941"], ["100"], ["1.465", "0.006"]], [["313.15"], ["0.8916"], ["100"], ["1.469", "0.006"]], [["313.15"], ["0.9472"], ["100"], ["1.473", "0.006"]], [["313.15"], ["1"], ["100"], ["1.476", "0.006"]], [["323.15"], ["0"], ["100"], ["1.374", "0.006"]], [["323.15"], ["0.0449"], ["100"], ["1.388", "0.006"]], [["323.15"], ["0.0939"], ["100"], ["1.4", "0.006"]], [["323.15"], ["0.2013"], ["100"], ["1.42", "0.006"]], [["323.15"], ["0.3004"], ["100"], ["1.432", "0.006"]], [["323.15"], ["0.3959"], ["100"], ["1.442", "0.006"]], [["323.15"], ["0.5029"], ["100"], ["1.451", "0.006"]], [["323.15"], ["0.5917"], ["100"], ["1.458", "0.006"]], [["323.15"], ["0.6837"], ["100"], ["1.459", "0.006"]], [["323.15"], ["0.7941"], ["100"], ["1.463", "0.006"]], [["323.15"], ["0.8916"], ["100"], ["1.467", "0.006"]], [["323.15"], ["0.9472"], ["100"], ["1.471", "0.006"]], [["323.15"], ["1"], ["100"], ["1.474", "0.006"]], [["333.15"], ["0"], ["100"], ["1.37", "0.006"]], [["333.15"], ["0.0449"], ["100"], ["1.384", "0.006"]], [["333.15"], ["0.0939"], ["100"], ["1.397", "0.006"]], [["333.15"], ["0.2013"], ["100"], ["1.417", "0.006"]], [["333.15"], ["0.3004"], ["100"], ["1.429", "0.006"]], [["333.15"], ["0.3959"], ["100"], ["1.44", "0.006"]], [["333.15"], ["0.5029"], ["100"], ["1.448", "0.006"]], [["333.15"], ["0.5917"], ["100"], ["1.454", "0.006"]], [["333.15"], ["0.6837"], ["100"], ["1.458", "0.006"]], [["333.15"], ["0.7941"], ["100"], ["1.461", "0.006"]], [["333.15"], ["0.8916"], ["100"], ["1.465", "0.006"]], [["333.15"], ["0.9472"], ["100"], ["1.469", "0.006"]], [["333.15"], ["1"], ["100"], ["1.471", "0.006"]]], "solvent": null, "footer": "", "expmeth": "Standard Abbe refractometry", "constr": [], "ref": {"title": "Intermolecular Interactions between 1-Ethyl-3-methylimidazolium-Based Ionic Liquids with Carboxylic Acid at Different Temperatures via Thermodynamic and Spectroscopic Studies", "full": "Masilo, K.; Bahadur, I. (2021) J. Chem. Eng. Data 66(3), 1211-1230."}, "phases": ["Liquid"]}