{"components": [{"sample": [["Source:", "synthesized by the authors"], ["Purification:", "Karl Fischer titration;estimated by the compiler"], ["Purity:", "0.005 water mass %;98 mass %(dried by vacuum heating)"]], "name": "pyrrolidinium nitrate", "formula": "C<SUB>4</SUB>H<SUB>10</SUB>N<SUB>2</SUB>O<SUB>3</SUB>", "idout": "AAZplZ", "mw": "134.13"}], "title": "Refraction, surface tension, and speed of sound: Refractive index (Na D-line)", "dhead": [["Pressure, kPa", null], ["Temperature, K", null], ["Refractive index (Na D-line)", "Liquid"]], "data": [[["101.3"], ["298.15"], ["1.3955", "0.0009"]]], "solvent": null, "footer": "", "expmeth": "Standard Abbe refractometry", "constr": [], "ref": {"full": "Anouti, M.; Caillon-Caravanier, M.; Dridi, Y.; Jacquemin, J.; Hardacre, C.; Lemordant, D. (2009) J. Chem. Thermodyn. 41(6), 799-808.", "title": "Liquid densities, heat capacities, refractive index and excess quantities for {protic ionic liquids + water} binary system "}, "phases": ["Liquid"]}