{"ref": {"full": "Shah, S. N.; Lethesh, K. C.; Mutalib, M. I. A.; Pilus, R. B. M. (2015) Ind. Eng. Chem. Res. 54, 3697-3705.", "title": "Evaluation of Thermophysical Properties of Imidazolium-Based Phenolate Ionic Liquids"}, "constr": [], "phases": ["Liquid"], "dhead": [["Temperature, K", null], ["Pressure, kPa", null], ["Refractive index (Na D-line)", "Liquid"]], "components": [{"name": "1-decyl-3-methylimidazolium phenolate", "formula": "C<SUB>20</SUB>H<SUB>32</SUB>N<SUB>2</SUB>O", "mw": "316.49", "idout": "ABIsGw", "sample": [["Source:", "synthesized by the authors"], ["Purity analysis:", "dried by vacuum heating"]]}], "title": "Refraction, surface tension, and speed of sound: Refractive index (Na D-line)", "expmeth": "Standard Abbe refractometry", "data": [[["293"], ["101.325"], ["1.5228", "0.0098"]], [["298"], ["101.325"], ["1.5218", "0.0098"]], [["303"], ["101.325"], ["1.5202", "0.0098"]], [["308"], ["101.325"], ["1.5186", "0.0098"]], [["313"], ["101.325"], ["1.5169", "0.0098"]], [["318"], ["101.325"], ["1.5151", "0.0098"]], [["323"], ["101.325"], ["1.5132", "0.0097"]], [["328"], ["101.325"], ["1.5112", "0.0097"]], [["333"], ["101.325"], ["1.5092", "0.0097"]]], "solvent": null, "footer": ""}