{"constr": [], "ref": {"full": "Seki, S.; Tsuzuki, S.; Hayamizu, K.; Umebayashi, Y.; Serizawa, N.; Takei, K.; Miyashiro, H. (2012) J. Chem. Eng. Data 57(8), 2211-2216.", "title": "Comprehensive Refractive Index Property for Room-Temperature Ionic Liquids"}, "phases": ["Liquid"], "components": [{"name": "1-ethyl-3-methylpyridinium bis(fluorosulfonyl)amide", "formula": "C<SUB>8</SUB>H<SUB>12</SUB>F<SUB>2</SUB>N<SUB>2</SUB>O<SUB>4</SUB>S<SUB>2</SUB>", "idout": "ABGHIS", "mw": "302.31", "sample": [["Source:", "commercial source"], ["Initial purification:", "stated by supplier"], ["Initial purity:", "98 mass %"], ["Final purification:", "Karl Fischer titration"], ["Final purity:", "0.01 water mass %(dried by vacuum heating)"]]}], "title": "Refraction, surface tension, and speed of sound: Refractive index (Na D-line)", "dhead": [["Temperature, K", null], ["Pressure, kPa", null], ["Refractive index (Na D-line)", "Liquid"]], "data": [[["283.15"], ["101.325"], ["1.47636", "0.00064"]], [["288.15"], ["101.325"], ["1.47489", "0.00064"]], [["293.15"], ["101.325"], ["1.47341", "0.00064"]], [["298.15"], ["101.325"], ["1.47194", "0.00064"]], [["303.15"], ["101.325"], ["1.47048", "0.00064"]], [["308.15"], ["101.325"], ["1.46897", "0.00064"]], [["313.15"], ["101.325"], ["1.46754", "0.00063"]], [["318.15"], ["101.325"], ["1.46611", "0.00063"]], [["323.15"], ["101.325"], ["1.46466", "0.00064"]], [["328.15"], ["101.325"], ["1.46322", "0.00063"]], [["333.15"], ["101.325"], ["1.4618", "0.00063"]], [["338.15"], ["101.325"], ["1.46036", "0.00063"]], [["343.15"], ["101.325"], ["1.45899", "0.00063"]], [["348.15"], ["101.325"], ["1.45757", "0.00063"]], [["353.15"], ["101.325"], ["1.45612", "0.00064"]]], "solvent": null, "footer": "", "expmeth": "Standard Abbe refractometry"}