{"components": [{"idout": "AADYJk", "mw": "18.02", "name": "water", "formula": "H<SUB>2</SUB>O", "sample": [["Purification:", "estimated by the compiler"], ["Purity:", "99.9 mass %(unspecified)"]]}, {"mw": "101.10", "idout": "AATXuS", "formula": "KNO<SUB>3</SUB>", "name": "potassium nitrate", "sample": [["Source:", "commercial source"], ["Purification:", "stated by supplier"], ["Purity:", "99 mass %"], ["Purity analysis:", "dried by vacuum heating"]]}, {"sample": [["Source:", "commercial source"], ["Purification:", "stated by supplier"], ["Purity:", "99 mol %"], ["Purity analysis:", "dried by vacuum heating"]], "name": "1-methyl-3-octylimidazolium chloride", "formula": "C<SUB>12</SUB>H<SUB>23</SUB>ClN<SUB>2</SUB>", "idout": "AAsTjr", "mw": "230.78"}], "title": "Refraction, surface tension, and speed of sound: Refractive index (Na D-line)", "dhead": [["Weight fraction of 1-methyl-3-octylimidazolium chloride", "Liquid"], ["Weight fraction of potassium nitrate", "Liquid"], ["Pressure, kPa", null], ["Temperature, K", null], ["Refractive index (Na D-line)", "Liquid"]], "data": [[["0"], ["0.2792"], ["101"], ["298.15"], ["1.35915", "0.00032"]], [["0.0628"], ["0.2142"], ["101"], ["298.15"], ["1.36777", "0.00032"]], [["0.134"], ["0.162"], ["101"], ["298.15"], ["1.37718", "0.00032"]], [["0.2099"], ["0.1248"], ["101"], ["298.15"], ["1.38697", "0.00033"]], [["0.2883"], ["0.0983"], ["101"], ["298.15"], ["1.39716", "0.00033"]], [["0.3663"], ["0.0837"], ["101"], ["298.15"], ["1.40777", "0.00033"]], [["0.4469"], ["0.0683"], ["101"], ["298.15"], ["1.41883", "0.00034"]], [["0.5302"], ["0.0525"], ["101"], ["298.15"], ["1.43056", "0.00034"]], [["0.6144"], ["0.0393"], ["101"], ["298.15"], ["1.4407", "0.00034"]], [["0.7002"], ["0.0268"], ["101"], ["298.15"], ["1.45269", "0.00035"]], [["0.7875"], ["0.0149"], ["101"], ["298.15"], ["1.46748", "0.00036"]]], "solvent": null, "footer": "", "expmeth": "Standard Abbe refractometry", "constr": [], "ref": {"title": "Phase behavior of [Cnmim]Cl/Br (n=2, 4, 6, 8) +MNO3(M=Na, K, Rb, Cs) + H2O systems at 298.15 K", "full": "Li, X.; Li, S.; Zhai, Q.; Jiang, Y.; Hu, M. (2016) J. Mol. Liq. 215, 237-243."}, "phases": ["Liquid"]}