{"components": [{"sample": [["Source:", "commercial source"], ["Purification:", "stated by supplier"], ["Purity:", "99.7 mass %"], ["Purity analysis:", "dried by vacuum heating"]], "name": "2-aminoacetic acid", "formula": "C<SUB>2</SUB>H<SUB>5</SUB>NO<SUB>2</SUB>", "idout": "AAOWgA", "mw": "75.07"}, {"idout": "AADYJk", "mw": "18.02", "name": "water", "formula": "H<SUB>2</SUB>O", "sample": [["Source:", "synthesized by the authors"], ["Purification:", "estimated by the compiler"], ["Purity:", "99.9 mass %"], ["Purity analysis:", "fractional distillation"]]}, {"sample": [["Source:", "commercial source"], ["Initial purification:", "NMR (proton)"], ["Initial purity:", "99 mass %"], ["Final purification:", "Karl Fischer titration"], ["Final purity:", "0.02 water mass %(dried by vacuum heating)"]], "mw": "219.13", "idout": "AAqHiH", "formula": "C<SUB>8</SUB>H<SUB>15</SUB>BrN<SUB>2</SUB>", "name": "1-butyl-3-methylimidazolium bromide"}], "title": "Refraction, surface tension, and speed of sound: Refractive index (Na D-line)", "dhead": [["MolaLity of 2-aminoacetic acid, mol/kg", "Liquid"], ["Solvent: MolaLity of 1-butyl-3-methylimidazolium bromide, mol/kg", "Liquid"], ["Temperature, K", null], ["Pressure, kPa", null], ["Refractive index (Na D-line)", "Liquid"]], "data": [[["0"], ["0"], ["298.15"], ["101"], ["1.3325", "0.0004"]], [["0"], ["0.0915"], ["298.15"], ["101"], ["1.3359", "0.0004"]], [["0"], ["0.185"], ["298.15"], ["101"], ["1.339", "0.0004"]], [["0"], ["0.2866"], ["298.15"], ["101"], ["1.3414", "0.0004"]], [["0"], ["0.3496"], ["298.15"], ["101"], ["1.343", "0.0004"]], [["0.0941"], ["0"], ["298.15"], ["101"], ["1.3333", "0.0004"]], [["0.0952"], ["0.185"], ["298.15"], ["101"], ["1.3405", "0.0004"]], [["0.0978"], ["0.0915"], ["298.15"], ["101"], ["1.337", "0.0004"]], [["0.1024"], ["0.2866"], ["298.15"], ["101"], ["1.3435", "0.0004"]], [["0.1062"], ["0.3496"], ["298.15"], ["101"], ["1.3454", "0.0004"]], [["0.1314"], ["0.3496"], ["298.15"], ["101"], ["1.3458", "0.0004"]], [["0.1336"], ["0.185"], ["298.15"], ["101"], ["1.3409", "0.0004"]], [["0.1348"], ["0.2866"], ["298.15"], ["101"], ["1.344", "0.0004"]], [["0.1375"], ["0.0915"], ["298.15"], ["101"], ["1.3373", "0.0004"]], [["0.1492"], ["0"], ["298.15"], ["101"], ["1.3339", "0.0004"]], [["0.1924"], ["0.0915"], ["298.15"], ["101"], ["1.338", "0.0004"]], [["0.1926"], ["0.3496"], ["298.15"], ["101"], ["1.3465", "0.0004"]], [["0.1972"], ["0"], ["298.15"], ["101"], ["1.3345", "0.0004"]], [["0.2048"], ["0.185"], ["298.15"], ["101"], ["1.3418", "0.0004"]], [["0.2058"], ["0.2866"], ["298.15"], ["101"], ["1.3448", "0.0004"]], [["0.2466"], ["0.3496"], ["298.15"], ["101"], ["1.3472", "0.0004"]], [["0.2546"], ["0.0915"], ["298.15"], ["101"], ["1.3389", "0.0004"]], [["0.2552"], ["0.2866"], ["298.15"], ["101"], ["1.3455", "0.0004"]], [["0.2611"], ["0"], ["298.15"], ["101"], ["1.3354", "0.0004"]], [["0.2812"], ["0.185"], ["298.15"], ["101"], ["1.3427", "0.0004"]], [["0.2824"], ["0.2866"], ["298.15"], ["101"], ["1.3458", "0.0004"]], [["0.2881"], ["0.185"], ["298.15"], ["101"], ["1.3428", "0.0004"]], [["0.29"], ["0.3496"], ["298.15"], ["101"], ["1.3478", "0.0004"]], [["0.2975"], ["0"], ["298.15"], ["101"], ["1.3359", "0.0004"]], [["0.2975"], ["0.0915"], ["298.15"], ["101"], ["1.3395", "0.0004"]], [["0.303"], ["0"], ["298.15"], ["101"], ["1.336", "0.0004"]], [["0.3437"], ["0.3496"], ["298.15"], ["101"], ["1.3484", "0.0004"]], [["0.3471"], ["0.185"], ["298.15"], ["101"], ["1.3437", "0.0004"]], [["0.3472"], ["0.0915"], ["298.15"], ["101"], ["1.3402", "0.0004"]], [["0.3505"], ["0.2866"], ["298.15"], ["101"], ["1.3467", "0.0004"]], [["0.3935"], ["0"], ["298.15"], ["101"], ["1.337", "0.0004"]], [["0.3955"], ["0.2866"], ["298.15"], ["101"], ["1.3473", "0.0004"]], [["0.3981"], ["0.3496"], ["298.15"], ["101"], ["1.3491", "0.0004"]], [["0.4022"], ["0.185"], ["298.15"], ["101"], ["1.3445", "0.0004"]], [["0.4056"], ["0.0915"], ["298.15"], ["101"], ["1.3411", "0.0004"]], [["0.4367"], ["0.3496"], ["298.15"], ["101"], ["1.3496", "0.0004"]], [["0.4375"], ["0.2866"], ["298.15"], ["101"], ["1.3478", "0.0004"]], [["0.4394"], ["0.0915"], ["298.15"], ["101"], ["1.3416", "0.0004"]], [["0.4408"], ["0"], ["298.15"], ["101"], ["1.3376", "0.0004"]], [["0.4644"], ["0.185"], ["298.15"], ["101"], ["1.3454", "0.0004"]]], "solvent": "water + 1-butyl-3-methylimidazolium bromide", "footer": "", "expmeth": "Standard Abbe refractometry", "ref": {"full": "Shekaari, H.; Jebali, F. (2010) J. Chem. Eng. Data 55(7), 2517-2523.", "title": "Densities, Viscosities, Electrical Conductances, and Refractive Indices of Amino Acid + Ionic Liquid ([BMIm]Br) + Water Mixtures at 298.15 K"}, "constr": [], "phases": ["Liquid"]}