{"constr": [], "ref": {"title": "(Liquid + liquid) equilibrium at T = 298.15 K for ternary mixtures of alkane + aromatic compounds + imidazolium-based ionic liquids", "full": "Dominguez, I.; Requejo, P. F.; Canosa, J.; Dominguez, A. (2014) J. Chem. Thermodyn. 74, 138-143."}, "phases": ["Liquid"], "components": [{"idout": "ABZxGx", "mw": "405.33", "name": "1-methyl-3-propylimidazolium bis[(trifluoromethyl)sulfonyl]imide", "formula": "C<SUB>9</SUB>H<SUB>13</SUB>F<SUB>6</SUB>N<SUB>3</SUB>O<SUB>4</SUB>S<SUB>2</SUB>", "sample": [["Source:", "commercial source"], ["Initial purification:", "stated by supplier"], ["Initial purity:", "99.5 mass %"], ["Final purification:", "Karl Fischer titration"], ["Final purity:", "0.06 water mass %(dried by vacuum heating)"]]}], "title": "Refraction, surface tension, and speed of sound: Refractive index (Na D-line)", "dhead": [["Temperature, K", null], ["Pressure, kPa", null], ["Refractive index (Na D-line)", "Liquid"]], "data": [[["298.15"], ["101.325"], ["1.42526", "0.00033"]]], "solvent": null, "footer": "", "expmeth": "Standard Abbe refractometry"}