{"components": [{"idout": "ABvyrm", "mw": "519.81", "name": "trioctylammonium phthalate", "formula": "C<SUB>32</SUB>H<SUB>57</SUB>NO<SUB>4</SUB>", "sample": [["Source:", "synthesized by the authors"], ["Purification:", "estimated by the compiler"], ["Purity:", "98 mass %(dried in a desiccator)"]]}], "title": "Refraction, surface tension, and speed of sound: Refractive index (Na D-line)", "dhead": [["Temperature, K", null], ["Pressure, kPa", null], ["Refractive index (Na D-line)", "Liquid"]], "data": [[["298.1"], ["101.325"], ["1.4921", "0.0008"]]], "solvent": null, "footer": "", "expmeth": "Standard Abbe refractometry", "ref": {"full": "Ramjhan, Z.; Lokhat, D.; Alshammari, M. B.; Joy, M. N.; Ahmad, A. (2021) J. Mol. Liq. 342, 117534.", "title": "Trioctylammonium-based Ionic liquids for metal ions Extraction: Synthesis, characterization and application"}, "constr": [], "phases": ["Liquid"]}