{"components": [{"sample": [["Source:", "commercial source"], ["Initial purification:", "stated by supplier"], ["Initial purity:", "98 mass %"], ["Final purification:", "Karl Fischer titration"], ["Final purity:", "0.03 water mass %(dried by vacuum heating)"]], "mw": "205.26", "idout": "AAnYjG", "formula": "C<SUB>10</SUB>H<SUB>15</SUB>N<SUB>5</SUB>", "name": "1-butyl-3-methylimidazolium dicyanamide"}], "title": "Refraction, surface tension, and speed of sound: Refractive index (Na D-line)", "dhead": [["Temperature, K", null], ["Pressure, kPa", null], ["Refractive index (Na D-line)", "Liquid"]], "data": [[["283.15"], ["101.325"], ["1.51371", "0.00051"]], [["288.15"], ["101.325"], ["1.51202", "0.00051"]], [["293.15"], ["101.325"], ["1.50996", "0.00051"]], [["298.15"], ["101.325"], ["1.508", "0.00051"]], [["303.15"], ["101.325"], ["1.50588", "0.00051"]], [["308.15"], ["101.325"], ["1.50404", "0.00051"]], [["313.15"], ["101.325"], ["1.50205", "0.00051"]], [["318.15"], ["101.325"], ["1.50016", "0.00051"]], [["323.15"], ["101.325"], ["1.49835", "0.00051"]], [["328.15"], ["101.325"], ["1.4965", "0.00051"]], [["333.15"], ["101.325"], ["1.49478", "0.00051"]], [["338.15"], ["101.325"], ["1.49305", "0.00051"]], [["343.15"], ["101.325"], ["1.49136", "0.00051"]], [["348.15"], ["101.325"], ["1.48975", "0.00051"]], [["353.15"], ["101.325"], ["1.48816", "0.00051"]]], "solvent": null, "footer": "", "expmeth": "Standard Abbe refractometry", "ref": {"full": "Neves, C. M. S. S.; Kurnia, K. A.; Coutinho, J. A. P.; Marrucho, I. M.; Lopes, J. N. C.; Freire, M. G.; Rebelo, L. P. N. (2013) J. Phys. Chem. B 117, 10271-10283.", "title": "Systematic Study of the Thermophysical Properties of Imidazolium- Based Ionic Liquids with Cyano-Functionalized Anions"}, "constr": [], "phases": ["Liquid"]}