{"constr": [], "ref": {"title": "Thermodynamic Properties of Ionic Liquids in Organic Solvents from (293.15 to 303.15) K", "full": "Pereiro, A. B.; Rodriguez, A. (2007) J. Chem. Eng. Data 52(2), 600-608."}, "phases": ["Liquid"], "components": [{"sample": [["Source:", "commercial source"], ["Purification:", "gas chromatography"], ["Purity:", "99.8 mass %(de-gassed by boiling or ultrasonically;molecular sieve treatment)"]], "mw": "88.11", "idout": "AAQxSq", "formula": "C<SUB>4</SUB>H<SUB>8</SUB>O<SUB>2</SUB>", "name": "ethyl acetate"}, {"name": "1,3-dimethylimidazolium methylsulfate", "formula": "C<SUB>6</SUB>H<SUB>12</SUB>N<SUB>2</SUB>O<SUB>4</SUB>S", "idout": "AAoCnc", "mw": "208.23", "sample": [["Source:", "commercial source"], ["Purification:", "Karl Fischer titration;gas chromatography"], ["Purity:", "0.03 water mass %;98 mass %(dried by vacuum heating)"]]}], "title": "Refraction, surface tension, and speed of sound: Refractive index (Na D-line)", "dhead": [["Temperature, K", null], ["Mole fraction of 1,3-dimethylimidazolium methylsulfate", "Liquid"], ["Pressure, kPa", null], ["Refractive index (Na D-line)", "Liquid"]], "solvent": null, "data": [[["293.15"], ["0"], ["101"], ["1.37241", "0.00082"]], [["293.15"], ["0.8549"], ["101"], ["1.47633", "0.00073"]], [["293.15"], ["0.8746"], ["101"], ["1.47752", "0.00074"]], [["293.15"], ["0.9072"], ["101"], ["1.47884", "0.00078"]], [["293.15"], ["0.9294"], ["101"], ["1.48008", "0.00076"]], [["293.15"], ["0.9491"], ["101"], ["1.48086", "0.00079"]], [["293.15"], ["1"], ["101"], ["1.48392", "0.00078"]], [["298.15"], ["0"], ["101"], ["1.36977", "0.00082"]], [["298.15"], ["0.8549"], ["101"], ["1.47553", "0.00074"]], [["298.15"], ["0.8746"], ["101"], ["1.4764", "0.00075"]], [["298.15"], ["0.9072"], ["101"], ["1.4775", "0.00077"]], [["298.15"], ["0.9294"], ["101"], ["1.47876", "0.00077"]], [["298.15"], ["0.9491"], ["101"], ["1.47955", "0.00077"]], [["298.15"], ["1"], ["101"], ["1.4827", "0.00078"]], [["303.15"], ["0"], ["101"], ["1.36712", "0.00082"]], [["303.15"], ["0.8549"], ["101"], ["1.4744", "0.00075"]], [["303.15"], ["0.8746"], ["101"], ["1.47522", "0.00076"]], [["303.15"], ["0.9072"], ["101"], ["1.47618", "0.00075"]], [["303.15"], ["0.9294"], ["101"], ["1.47752", "0.00078"]], [["303.15"], ["0.9491"], ["101"], ["1.47822", "0.00076"]], [["303.15"], ["1"], ["101"], ["1.48129", "0.00079"]]], "footer": "", "expmeth": "Standard Abbe refractometry"}