{"constr": [], "ref": {"title": "Experimental and theoretical excess molar properties of imidazolium based ionic liquids with molecular organic solvents  I. 1-Hexyl-3- methylimidazlouim tetraflouroborate and 1-octyl-3-methylimidazlouim tetraflouroborate with cyclic ethers", "full": "Ijardar, S. P.; Malek, N. I. (2014) J. Chem. Thermodyn. 71, 236-248."}, "phases": ["Liquid"], "title": "Refraction, surface tension, and speed of sound: Refractive index (Na D-line)", "components": [{"sample": [["Source:", "synthesized by the authors"], ["Purification:", "estimated by the compiler;Karl Fischer titration"], ["Purity:", "98 mass %;0.01 water mass %(dried by vacuum heating;solvent extraction)"]], "name": "1-methyl-3-octylimidazolium tetrafluoroborate", "formula": "C<SUB>12</SUB>H<SUB>23</SUB>BF<SUB>4</SUB>N<SUB>2</SUB>", "mw": "282.13", "idout": "ABCNhW"}], "dhead": [["Temperature, K", null], ["Pressure, kPa", null], ["Refractive index (Na D-line)", "Liquid"]], "footer": "", "data": [[["293.15"], ["101.325"], ["1.43389", "0.0017"]], [["298.15"], ["101.325"], ["1.43296", "0.0017"]], [["303.15"], ["101.325"], ["1.43192", "0.0017"]], [["308.15"], ["101.325"], ["1.42939", "0.0017"]], [["313.15"], ["101.325"], ["1.42772", "0.0017"]], [["318.15"], ["101.325"], ["1.42684", "0.0017"]], [["323.15"], ["101.325"], ["1.42696", "0.0017"]]], "solvent": null, "expmeth": "Standard Abbe refractometry"}