{"ref": {"full": "Gonzalez, E. J.; Gonzalez, B.; Macedo, E. A. (2015) J. Chem. Thermodyn. 86, 96-105.", "title": "Effect of the relative humidity and isomeric structure on the physical properties of pyridinium based-ionic liquids"}, "constr": [], "phases": ["Liquid"], "title": "Refraction, surface tension, and speed of sound: Refractive index (Na D-line)", "components": [{"formula": "H<SUB>2</SUB>O", "name": "water", "mw": "18.02", "idout": "AADYJk", "sample": [["Source:", "commercial source"], ["Purification:", "estimated by the compiler"], ["Purity:", "99.8 mass %"]]}, {"formula": "C<SUB>10</SUB>H<SUB>12</SUB>F<SUB>6</SUB>N<SUB>2</SUB>O<SUB>4</SUB>S<SUB>2</SUB>", "name": "1-ethyl-4-methylpyridinium bis((trifluoromethyl)sulfonyl)amide", "mw": "402.33", "idout": "ABZTYy", "sample": [["Source:", "commercial source"], ["Initial purification:", "stated by supplier"], ["Initial purity:", "99 mass %"], ["Final purification:", "Karl Fischer titration;ion chromatography"], ["Final purity:", "0.0028 water mass %;0.01 halide impurity mass %(dried by vacuum heating)"]]}], "dhead": [["Mole fraction of water", "Liquid"], ["Temperature, K", null], ["Pressure, kPa", null], ["Refractive index (Na D-line)", "Liquid"]], "footer": "", "data": [[["0.144"], ["298.15"], ["101.3"], ["1.44235", "0.00039"]], [["0.144"], ["303.15"], ["101.3"], ["1.44089", "0.00039"]], [["0.144"], ["308.15"], ["101.3"], ["1.4394", "0.00038"]], [["0.144"], ["313.15"], ["101.3"], ["1.43785", "0.00039"]], [["0.144"], ["318.15"], ["101.3"], ["1.43674", "0.00039"]], [["0.144"], ["323.15"], ["101.3"], ["1.43532", "0.00041"]], [["0.144"], ["328.15"], ["101.3"], ["1.43396", "0.00041"]], [["0.144"], ["333.15"], ["101.3"], ["1.43253", "0.00041"]], [["0.144"], ["338.15"], ["101.3"], ["1.43108", "0.00041"]], [["0.144"], ["343.15"], ["101.3"], ["1.42964", "0.0004"]], [["0.201"], ["298.15"], ["101.3"], ["1.44165", "0.00039"]], [["0.201"], ["303.15"], ["101.3"], ["1.44016", "0.00039"]], [["0.201"], ["308.15"], ["101.3"], ["1.43875", "0.00039"]], [["0.201"], ["313.15"], ["101.3"], ["1.43727", "0.0004"]], [["0.201"], ["318.15"], ["101.3"], ["1.4359", "0.00039"]], [["0.201"], ["323.15"], ["101.3"], ["1.43441", "0.00037"]], [["0.201"], ["328.15"], ["101.3"], ["1.43298", "0.00037"]], [["0.201"], ["333.15"], ["101.3"], ["1.43159", "0.00037"]], [["0.201"], ["338.15"], ["101.3"], ["1.43016", "0.00037"]], [["0.201"], ["343.15"], ["101.3"], ["1.42874", "0.00037"]], [["0.306"], ["298.15"], ["101.3"], ["1.44005", "0.00039"]], [["0.306"], ["303.15"], ["101.3"], ["1.43866", "0.00039"]], [["0.306"], ["308.15"], ["101.3"], ["1.43719", "0.00039"]], [["0.306"], ["313.15"], ["101.3"], ["1.4355", "0.00039"]], [["0.306"], ["318.15"], ["101.3"], ["1.4346", "0.00038"]], [["0.306"], ["323.15"], ["101.3"], ["1.43373", "0.00036"]], [["0.306"], ["328.15"], ["101.3"], ["1.4324", "0.00035"]], [["0.306"], ["333.15"], ["101.3"], ["1.43102", "0.00035"]], [["0.306"], ["338.15"], ["101.3"], ["1.42965", "0.00035"]], [["0.306"], ["343.15"], ["101.3"], ["1.42828", "0.00035"]]], "solvent": null, "expmeth": "Standard Abbe refractometry"}