{"title": "Refraction, surface tension, and speed of sound: Refractive index", "components": [{"mw": "212.00", "idout": "AAonnS", "name": "1-propyl-3-methylimidazolium tetrafluoroborate", "formula": "C<SUB>7</SUB>H<SUB>13</SUB>BF<SUB>4</SUB>N<SUB>2</SUB>", "sample": [["Source:", "commercial source"], ["Purity analysis:", "dried by vacuum heating"]]}], "dhead": [["Temperature, K", null], ["Pressure, kPa", null], ["Wavelength, A", "Liquid"], ["Refractive index", "Liquid"]], "footer": "", "data": [[["298.15"], ["100"], ["430.1"], ["1.4284", "0.0012"]], [["298.15"], ["100"], ["486.1"], ["1.4233", "0.0012"]], [["298.15"], ["100"], ["589.6"], ["1.4176", "0.0012"]], [["298.15"], ["100"], ["656.3"], ["1.4152", "0.0012"]], [["298.15"], ["100"], ["822.7"], ["1.4116", "0.0012"]], [["303.15"], ["100"], ["430.1"], ["1.427", "0.0012"]], [["303.15"], ["100"], ["486.1"], ["1.4219", "0.0012"]], [["303.15"], ["100"], ["589.6"], ["1.4161", "0.0012"]], [["303.15"], ["100"], ["656.3"], ["1.4138", "0.0012"]], [["303.15"], ["100"], ["822.7"], ["1.4102", "0.0012"]], [["308.15"], ["100"], ["430.1"], ["1.4256", "0.0012"]], [["308.15"], ["100"], ["486.1"], ["1.4206", "0.0012"]], [["308.15"], ["100"], ["589.6"], ["1.4149", "0.0012"]], [["308.15"], ["100"], ["656.3"], ["1.4126", "0.0012"]], [["308.15"], ["100"], ["822.7"], ["1.409", "0.0012"]], [["313.15"], ["100"], ["430.1"], ["1.4242", "0.0012"]], [["313.15"], ["100"], ["486.1"], ["1.4191", "0.0012"]], [["313.15"], ["100"], ["589.6"], ["1.4135", "0.0012"]], [["313.15"], ["100"], ["656.3"], ["1.4113", "0.0012"]], [["313.15"], ["100"], ["822.7"], ["1.4078", "0.0012"]], [["318.15"], ["100"], ["430.1"], ["1.4228", "0.0012"]], [["318.15"], ["100"], ["486.1"], ["1.4178", "0.0012"]], [["318.15"], ["100"], ["589.6"], ["1.4122", "0.0012"]], [["318.15"], ["100"], ["656.3"], ["1.4099", "0.0012"]], [["318.15"], ["100"], ["822.7"], ["1.4065", "0.0012"]], [["323.15"], ["100"], ["430.1"], ["1.4213", "0.0012"]], [["323.15"], ["100"], ["486.1"], ["1.4163", "0.0012"]], [["323.15"], ["100"], ["589.6"], ["1.4109", "0.0012"]], [["323.15"], ["100"], ["656.3"], ["1.4086", "0.0012"]], [["323.15"], ["100"], ["822.7"], ["1.4053", "0.0012"]]], "solvent": null, "expmeth": "Interferometry", "ref": {"title": "Modeling the Temperature-Dependent Material Dispersion of Imidazolium-Based Ionic Liquids in the VIS-NIR", "full": "Arosa, Y.; Algnamat, B. S.; Rodriguez, C. D.; Lago, E. L.; Varela, L. M.; de la Fuente, R. (2018) J. Phys. Chem. C 122(51), 29470-29478."}, "constr": [], "phases": ["Liquid"]}