{"title": "Refraction, surface tension, and speed of sound: Refractive index (Na D-line)", "components": [{"sample": [["Source:", "commercial source"], ["Purification:", "estimated by the compiler"], ["Purity:", "99.9 % (basis not specified)(fractional distillation)"]], "idout": "AADYJk", "mw": "18.02", "name": "water", "formula": "H<SUB>2</SUB>O"}, {"sample": [["Source:", "synthesized by the authors"], ["Purification:", "Karl Fischer titration;NMR (proton)"], ["Purity:", "0.03 water mass %;98 % (basis not specified)"]], "name": "1-butyl-3-methylimidazolium iodide", "formula": "C<SUB>8</SUB>H<SUB>15</SUB>IN<SUB>2</SUB>", "idout": "AAzJkz", "mw": "266.13"}], "dhead": [["Temperature, K", null], ["MolaLity of 1-butyl-3-methylimidazolium iodide, mol/kg", "Liquid"], ["Pressure, kPa", null], ["Refractive index (Na D-line)", "Liquid"]], "footer": "", "data": [[["298.15"], ["0.0133"], ["101"], ["1.3331", "0.0006"]], [["298.15"], ["0.0293"], ["101"], ["1.3336", "0.0006"]], [["298.15"], ["0.0442"], ["101"], ["1.3343", "0.0006"]], [["298.15"], ["0.0505"], ["101"], ["1.3346", "0.0006"]], [["298.15"], ["0.0786"], ["101"], ["1.3356", "0.0006"]], [["298.15"], ["0.0995"], ["101"], ["1.3365", "0.0006"]], [["298.15"], ["0.1307"], ["101"], ["1.3376", "0.0006"]], [["298.15"], ["0.1782"], ["101"], ["1.3395", "0.0006"]], [["298.15"], ["0.216"], ["101"], ["1.341", "0.0006"]], [["298.15"], ["0.3257"], ["101"], ["1.3449", "0.0006"]], [["298.15"], ["0.4065"], ["101"], ["1.3478", "0.0006"]], [["298.15"], ["0.5184"], ["101"], ["1.3519", "0.0006"]], [["298.15"], ["0.6452"], ["101"], ["1.356", "0.0006"]], [["298.15"], ["0.7509"], ["101"], ["1.3595", "0.0006"]], [["298.15"], ["0.8786"], ["101"], ["1.3635", "0.0006"]], [["298.15"], ["1.1538"], ["101"], ["1.3714", "0.0006"]], [["298.15"], ["1.8374"], ["101"], ["1.3893", "0.0006"]], [["298.15"], ["2.5889"], ["101"], ["1.4054", "0.0006"]], [["308.15"], ["0.0133"], ["101"], ["1.3321", "0.0006"]], [["308.15"], ["0.0293"], ["101"], ["1.3325", "0.0006"]], [["308.15"], ["0.0442"], ["101"], ["1.333", "0.0006"]], [["308.15"], ["0.0505"], ["101"], ["1.3334", "0.0006"]], [["308.15"], ["0.0786"], ["101"], ["1.3344", "0.0006"]], [["308.15"], ["0.0995"], ["101"], ["1.3353", "0.0006"]], [["308.15"], ["0.1307"], ["101"], ["1.3363", "0.0006"]], [["308.15"], ["0.1782"], ["101"], ["1.3381", "0.0006"]], [["308.15"], ["0.216"], ["101"], ["1.3397", "0.0006"]], [["308.15"], ["0.3257"], ["101"], ["1.3435", "0.0006"]], [["308.15"], ["0.4065"], ["101"], ["1.3467", "0.0006"]], [["308.15"], ["0.5184"], ["101"], ["1.3503", "0.0006"]], [["308.15"], ["0.6452"], ["101"], ["1.3548", "0.0006"]], [["308.15"], ["0.7509"], ["101"], ["1.358", "0.0006"]], [["308.15"], ["0.8786"], ["101"], ["1.362", "0.0006"]], [["308.15"], ["1.1538"], ["101"], ["1.3701", "0.0006"]], [["308.15"], ["1.8374"], ["101"], ["1.3876", "0.0006"]], [["308.15"], ["2.5889"], ["101"], ["1.4035", "0.0006"]], [["318.15"], ["0.0133"], ["101"], ["1.3305", "0.0006"]], [["318.15"], ["0.0293"], ["101"], ["1.331", "0.0006"]], [["318.15"], ["0.0442"], ["101"], ["1.3316", "0.0006"]], [["318.15"], ["0.0505"], ["101"], ["1.3317", "0.0006"]], [["318.15"], ["0.0786"], ["101"], ["1.3328", "0.0006"]], [["318.15"], ["0.0995"], ["101"], ["1.3336", "0.0006"]], [["318.15"], ["0.1307"], ["101"], ["1.3347", "0.0006"]], [["318.15"], ["0.1782"], ["101"], ["1.3364", "0.0006"]], [["318.15"], ["0.216"], ["101"], ["1.338", "0.0006"]], [["318.15"], ["0.3257"], ["101"], ["1.3418", "0.0006"]], [["318.15"], ["0.4065"], ["101"], ["1.3447", "0.0006"]], [["318.15"], ["0.5184"], ["101"], ["1.3487", "0.0006"]], [["318.15"], ["0.6452"], ["101"], ["1.3529", "0.0006"]], [["318.15"], ["0.7509"], ["101"], ["1.3561", "0.0006"]], [["318.15"], ["0.8786"], ["101"], ["1.36", "0.0006"]], [["318.15"], ["1.1538"], ["101"], ["1.368", "0.0006"]], [["318.15"], ["1.8374"], ["101"], ["1.3853", "0.0006"]], [["318.15"], ["2.5889"], ["101"], ["1.4012", "0.0006"]], [["328.15"], ["0.0133"], ["101"], ["1.3285", "0.0006"]], [["328.15"], ["0.0293"], ["101"], ["1.3289", "0.0006"]], [["328.15"], ["0.0442"], ["101"], ["1.3293", "0.0006"]], [["328.15"], ["0.0505"], ["101"], ["1.3298", "0.0006"]], [["328.15"], ["0.0786"], ["101"], ["1.331", "0.0006"]], [["328.15"], ["0.0995"], ["101"], ["1.3315", "0.0006"]], [["328.15"], ["0.1307"], ["101"], ["1.3329", "0.0006"]], [["328.15"], ["0.1782"], ["101"], ["1.3347", "0.0006"]], [["328.15"], ["0.216"], ["101"], ["1.3359", "0.0006"]], [["328.15"], ["0.3257"], ["101"], ["1.3404", "0.0006"]], [["328.15"], ["0.4065"], ["101"], ["1.3433", "0.0006"]], [["328.15"], ["0.5184"], ["101"], ["1.3464", "0.0006"]], [["328.15"], ["0.6452"], ["101"], ["1.3507", "0.0006"]], [["328.15"], ["0.7509"], ["101"], ["1.3541", "0.0006"]], [["328.15"], ["0.8786"], ["101"], ["1.3578", "0.0006"]], [["328.15"], ["1.1538"], ["101"], ["1.3657", "0.0006"]], [["328.15"], ["1.8374"], ["101"], ["1.3831", "0.0006"]], [["328.15"], ["2.5889"], ["101"], ["1.3986", "0.0006"]]], "solvent": "water", "expmeth": "Standard Abbe refractometry", "ref": {"title": "Osmotic Coefficients and Refractive Indices of Aqueous Solutions of Ionic Liquids Containing 1-Butyl-3-methylimidazolium Halide at T ) (298.15 to 328.15) K", "full": "Shekaari, H.; Mousavi, S. S. (2009) J. Chem. Eng. Data 54(3), 823-829."}, "constr": [], "phases": ["Liquid"]}