{"title": "Refraction, surface tension, and speed of sound: Refractive index (Na D-line)", "components": [{"sample": [["Purification:", "estimated by the compiler"], ["Purity:", "99.9 mass %(unspecified)"]], "formula": "H<SUB>2</SUB>O", "name": "water", "mw": "18.02", "idout": "AADYJk"}, {"sample": [["Source:", "commercial source"], ["Purification:", "stated by supplier"], ["Purity:", "99 mass %"], ["Purity analysis:", "dried by vacuum heating"]], "name": "potassium nitrate", "formula": "KNO<SUB>3</SUB>", "idout": "AATXuS", "mw": "101.10"}, {"sample": [["Source:", "commercial source"], ["Purification:", "stated by supplier"], ["Purity:", "99 mol %"], ["Purity analysis:", "dried by vacuum heating"]], "mw": "202.73", "idout": "AAmzKp", "formula": "C<SUB>10</SUB>H<SUB>19</SUB>ClN<SUB>2</SUB>", "name": "1-hexyl-3-methylimidazolium chloride"}], "dhead": [["Weight fraction of 1-hexyl-3-methylimidazolium chloride", "Liquid"], ["Weight fraction of potassium nitrate", "Liquid"], ["Pressure, kPa", null], ["Temperature, K", null], ["Refractive index (Na D-line)", "Liquid"]], "footer": "", "data": [[["0"], ["0.2792"], ["101"], ["298.15"], ["1.35915", "0.00032"]], [["0.062"], ["0.2049"], ["101"], ["298.15"], ["1.36666", "0.00032"]], [["0.1316"], ["0.1565"], ["101"], ["298.15"], ["1.37629", "0.00032"]], [["0.2063"], ["0.1184"], ["101"], ["298.15"], ["1.3852", "0.00033"]], [["0.2831"], ["0.0928"], ["101"], ["298.15"], ["1.39585", "0.00033"]], [["0.3602"], ["0.0765"], ["101"], ["298.15"], ["1.40427", "0.00033"]], [["0.4388"], ["0.0625"], ["101"], ["298.15"], ["1.41883", "0.00033"]], [["0.5197"], ["0.0482"], ["101"], ["298.15"], ["1.42837", "0.00034"]], [["0.6018"], ["0.0357"], ["101"], ["298.15"], ["1.4377", "0.00034"]], [["0.6852"], ["0.0239"], ["101"], ["298.15"], ["1.45053", "0.00035"]], [["0.7689"], ["0.0143"], ["101"], ["298.15"], ["1.47159", "0.00035"]]], "solvent": null, "expmeth": "Standard Abbe refractometry", "constr": [], "ref": {"title": "Phase behavior of [Cnmim]Cl/Br (n=2, 4, 6, 8) +MNO3(M=Na, K, Rb, Cs) + H2O systems at 298.15 K", "full": "Li, X.; Li, S.; Zhai, Q.; Jiang, Y.; Hu, M. (2016) J. Mol. Liq. 215, 237-243."}, "phases": ["Liquid"]}