{"title": "Refraction, surface tension, and speed of sound: Refractive index (Na D-line)", "components": [{"sample": [["Source:", "commercial source"], ["Initial purification:", "stated by supplier"], ["Initial purity:", "97 mass %"], ["Final purification:", "NMR (proton);Karl Fischer titration"], ["Final purity:", "99 mass %;0.02 water mass %(chemical reagent treatment;dried by vacuum heating)"]], "name": "trihexyltetradecylphosphonium decanoate", "formula": "C<SUB>42</SUB>H<SUB>87</SUB>O<SUB>2</SUB>P", "idout": "ACVzmt", "mw": "655.13"}], "dhead": [["Temperature, K", null], ["Pressure, kPa", null], ["Refractive index (Na D-line)", "Liquid"]], "footer": "", "data": [[["283.15"], ["101.325"], ["1.47754", "0.00037"]], [["288.15"], ["101.325"], ["1.47586", "0.00037"]], [["293.15"], ["101.325"], ["1.47413", "0.00037"]], [["298.15"], ["101.325"], ["1.47242", "0.00037"]], [["303.15"], ["101.325"], ["1.47069", "0.00037"]], [["308.15"], ["101.325"], ["1.46896", "0.00037"]], [["313.15"], ["101.325"], ["1.46722", "0.00037"]], [["318.15"], ["101.325"], ["1.46548", "0.00037"]], [["323.15"], ["101.325"], ["1.46341", "0.00037"]], [["328.15"], ["101.325"], ["1.46165", "0.00037"]], [["333.15"], ["101.325"], ["1.46002", "0.00037"]], [["338.15"], ["101.325"], ["1.45828", "0.00037"]], [["343.15"], ["101.325"], ["1.4566", "0.00037"]], [["348.15"], ["101.325"], ["1.45497", "0.00037"]], [["353.15"], ["101.325"], ["1.45327", "0.00037"]]], "solvent": null, "expmeth": "Standard Abbe refractometry", "constr": [], "ref": {"title": "Surface tension and refractive index of pure and water-saturated  tetradecyltrihexylphosphonium-based ionic liquids", "full": "Almeida, H. F. D.; Lopes-da-Silva, J. A.; Freire, M. G.; Coutinho, J. A. P. (2013) J. Chem. Thermodyn. 57, 372-379."}, "phases": ["Liquid"]}