{"phases": ["Liquid"], "ref": {"title": "Effect of Temperature, Anion, and Alkyl Chain Length on the Density and Refractive Index of 1-Alkyl-3-methylimidazolium-Based Ionic Liquids", "full": "Montalban, M. G.; Bolivar, C. L.; Banos, F. G. D.; Villora, G. (2015) J. Chem. Eng. Data 60(7), 1986-1996."}, "constr": [], "expmeth": "Standard Abbe refractometry", "data": [[["293.15"], ["101.325"], ["1.4781", "0.0016"]], [["303.15"], ["101.325"], ["1.4742", "0.0016"]], [["313.15"], ["101.325"], ["1.4725", "0.0015"]], [["323.15"], ["101.325"], ["1.471", "0.0016"]], [["333.15"], ["101.325"], ["1.469", "0.0016"]], [["343.15"], ["101.325"], ["1.4665", "0.0016"]]], "solvent": null, "footer": "", "dhead": [["Temperature, K", null], ["Pressure, kPa", null], ["Refractive index (Na D-line)", "Liquid"]], "components": [{"mw": "236.29", "idout": "AAtWDT", "name": "1-ethyl-3-methylimidazolium ethyl sulfate", "formula": "C<SUB>8</SUB>H<SUB>16</SUB>N<SUB>2</SUB>O<SUB>4</SUB>S", "sample": [["Source:", "commercial source"], ["Initial purification:", "stated by supplier"], ["Initial purity:", "99 mass %"], ["Final purification:", "not known"], ["Final purity:", "0.01 halide impurity mass %"]]}], "title": "Refraction, surface tension, and speed of sound: Refractive index (Na D-line)"}