{"components": [{"sample": [["Source:", "commercial source"], ["Initial purification:", "stated by supplier"], ["Initial purity:", "99 mass %"], ["Final purification:", "ion-selective electrode;Karl Fischer titration"], ["Final purity:", "0.01 halide impurity mass %;0.007 water mass %(dried by vacuum heating)"]], "formula": "C<SUB>12</SUB>H<SUB>19</SUB>F<SUB>6</SUB>N<SUB>3</SUB>O<SUB>4</SUB>S<SUB>2</SUB>", "name": "1-hexyl-3-methylimidazolium bis[(trifluoromethyl)sulfonyl]imide", "mw": "447.41", "idout": "ABiCtA"}], "title": "Refraction, surface tension, and speed of sound: Refractive index (Na D-line)", "dhead": [["Temperature, K", null], ["Pressure, kPa", null], ["Refractive index (Na D-line)", "Liquid"]], "solvent": null, "data": [[["298.15"], ["101.325"], ["1.43016", "0.0007"]], [["313.15"], ["101"], ["1.42542", "0.0007"]]], "footer": "", "expmeth": "Standard Abbe refractometry", "ref": {"title": "1-Alkyl-3-methylimidazolium bis(trifluoromethylsulfonyl)imide ionic liquids as solvents in the separation of azeotropic mixtures", "full": "Seoane, R. G.; Gonzalez, E. J.; Gonzalez, B. (2012) J. Chem. Thermodyn. 53, 152-157."}, "constr": [], "phases": ["Liquid"]}