{"phases": ["Liquid"], "constr": [], "ref": {"full": "Fang, D.-W.; Yan, Q.; Li, D.; Xia, L.-X.; Zang, S.-L. (2014) J. Chem. Thermodyn. 79, 12-18.", "title": "Estimation of physicochemical properties of 1-alkyl-3-methylimidazolium glutamate"}, "expmeth": "Standard Abbe refractometry", "data": [[["293.15"], ["101.325"], ["1.5174", "0.0005"]], [["298.15"], ["101.325"], ["1.5161", "0.0005"]], [["303.15"], ["101.325"], ["1.5148", "0.0005"]], [["308.15"], ["101.325"], ["1.5135", "0.0005"]], [["313.15"], ["101.325"], ["1.5123", "0.0005"]], [["318.15"], ["101.325"], ["1.511", "0.0005"]], [["323.15"], ["101.325"], ["1.5097", "0.0005"]], [["328.15"], ["101.325"], ["1.5083", "0.0005"]]], "solvent": null, "footer": "", "dhead": [["Temperature, K", null], ["Pressure, kPa", null], ["Refractive index (Na D-line)", "Liquid"]], "components": [{"name": "1-pentyl-3-methylimidazolium DL-glutamate", "formula": "C<SUB>14</SUB>H<SUB>25</SUB>N<SUB>3</SUB>O<SUB>4</SUB>", "mw": "299.37", "idout": "ABFdeu", "sample": [["Source:", "synthesized by the authors"], ["Purification:", "NMR (proton);ion chromatography"], ["Purity:", "99 mass %;0.01 halide impurity mass %(dried by vacuum heating;solvent extraction)"]]}], "title": "Refraction, surface tension, and speed of sound: Refractive index (Na D-line)"}