{"components": [{"mw": "208.23", "idout": "AAoCnc", "name": "1,3-dimethylimidazolium methylsulfate", "formula": "C<SUB>6</SUB>H<SUB>12</SUB>N<SUB>2</SUB>O<SUB>4</SUB>S", "sample": [["Source:", "synthesized by the authors"], ["Purification:", "Karl Fischer titration"], ["Purity:", "0.03 water mass %(dried by vacuum heating)"]]}], "title": "Refraction, surface tension, and speed of sound: Refractive index (Na D-line)", "dhead": [["Temperature, K", null], ["Pressure, kPa", null], ["Refractive index (Na D-line)", "Liquid"]], "solvent": null, "data": [[["283.15"], ["101.325"], ["1.48659", "0.001"]], [["288.15"], ["101.325"], ["1.48525", "0.001"]], [["293.15"], ["101.325"], ["1.48392", "0.001"]], [["298.15"], ["101.325"], ["1.4827", "0.001"]], [["303.15"], ["101.325"], ["1.48129", "0.001"]], [["308.15"], ["101.325"], ["1.47999", "0.001"]], [["313.15"], ["101.325"], ["1.47867", "0.001"]], [["318.15"], ["101.325"], ["1.47726", "0.001"]], [["323.15"], ["101.325"], ["1.47593", "0.001"]], [["328.15"], ["101.325"], ["1.47421", "0.001"]], [["333.15"], ["101.325"], ["1.47294", "0.001"]], [["338.15"], ["101.325"], ["1.47154", "0.001"]], [["343.15"], ["101.325"], ["1.47027", "0.001"]]], "footer": "", "expmeth": "Standard Abbe refractometry", "ref": {"full": "Pereiro, A. B.; Santamarta, F.; Tojo, E.; Rodriguez, A.; Tojo, J, (2006) J. Chem. Eng. Data 51(3), 952-954.", "title": "Temperature Dependence of Physical Properties of Ionic Liquid 1,3-Dimethylimidazolium Methyl Sulfate"}, "constr": [], "phases": ["Liquid"]}