{"expmeth": "minimum beam deflection method", "data": [[["304.92"], ["101.325"], ["1.40212", "0.0006"]], [["306.89"], ["101.325"], ["1.40165", "0.0006"]], [["308.37"], ["101.325"], ["1.40123", "0.0006"]], [["309.67"], ["101.325"], ["1.40084", "0.0006"]], [["311.01"], ["101.325"], ["1.40065", "0.0006"]], [["311.91"], ["101.325"], ["1.40041", "0.0006"]], [["312.94"], ["101.325"], ["1.40037", "0.0006"]], [["313.41"], ["101.325"], ["1.4003", "0.0006"]], [["314.05"], ["101.325"], ["1.40042", "0.0006"]], [["314.38"], ["101.325"], ["1.40059", "0.0006"]], [["314.62"], ["101.325"], ["1.40077", "0.0006"]], [["314.79"], ["101.325"], ["1.40097", "0.0006"]], [["314.9"], ["101.325"], ["1.40117", "0.0006"]], [["314.96"], ["101.325"], ["1.40137", "0.0006"]], [["315.02"], ["101.325"], ["1.40158", "0.0006"]], [["315.07"], ["101.325"], ["1.4019", "0.00061"]], [["315.08"], ["101.325"], ["1.40201", "0.0006"]], [["315.09"], ["101.325"], ["1.40233", "0.00064"]]], "solvent": null, "footer": "", "dhead": [["Temperature, K", null], ["Pressure, kPa", null], ["Refractive index (Na D-line)", "Liquid mixture 1"]], "components": [{"idout": "AAQxal", "mw": "88.15", "formula": "C<SUB>5</SUB>H<SUB>12</SUB>O", "name": "pentan-1-ol", "sample": [["Source:", "commercial source"], ["Purification:", "stated by supplier"], ["Purity:", "99 % (basis not specified)"], ["Purity analysis:", "none used"]]}, {"name": "1-hexyl-3-methylimidazolium tetrafluoroborate", "formula": "C<SUB>10</SUB>H<SUB>19</SUB>BF<SUB>4</SUB>N<SUB>2</SUB>", "mw": "254.08", "idout": "AAwscj", "sample": [["Source:", "commercial source"], ["Purity analysis:", "dried in a desiccator;dried by vacuum heating"]]}], "title": "Refraction, surface tension, and speed of sound: Refractive index (Na D-line)", "phases": ["Liquid mixture 1", "Liquid mixture 2"], "constr": [], "ref": {"title": "The liquid liquid coexistence of binary mixtures of the room temperature ionic liquid 1-methyl-3-hexylimidazolium tetrafluoroborate with alcohols", "full": "Wagner, M.; Stanga, O.; Schroer, W. (2004) Phys. Chem. Chem. Phys. 6(18), 4421-4431."}}