{"phases": ["Liquid"], "ref": {"title": "Dependency of Physicochemical Properties of Imidazolium Bis(Trifluoromethylsulfonyl)Imide-Based Ionic Liquids on Temperature and Alkyl Chain", "full": "Aljasmi, A.; AlJimaz, A. S.; AlKhaldi, K. H. A. E.; AlTuwaim, M. S. (2022) J. Chem. Eng. Data 67(4), 858-868."}, "constr": [], "expmeth": "Standard Abbe refractometry", "solvent": null, "data": [[["293.15"], ["101"], ["1.42944", "0.00064"]], [["298.15"], ["101"], ["1.42799", "0.00064"]], [["303.15"], ["101"], ["1.42654", "0.00064"]], [["308.15"], ["101"], ["1.42511", "0.00064"]], [["313.15"], ["101"], ["1.42365", "0.00064"]], [["318.15"], ["101"], ["1.42222", "0.00063"]], [["323.15"], ["101"], ["1.42079", "0.00063"]], [["328.15"], ["101"], ["1.41934", "0.00063"]], [["333.15"], ["101"], ["1.41793", "0.00063"]], [["338.15"], ["101"], ["1.41651", "0.00063"]], [["343.15"], ["101"], ["1.41513", "0.00063"]]], "footer": "", "dhead": [["Temperature, K", null], ["Pressure, kPa", null], ["Refractive index (Na D-line)", "Liquid"]], "components": [{"name": "1-butyl-3-ethylimidazolium bis[(trifluoromethyl)sulfonyl]imide", "formula": "C<SUB>11</SUB>H<SUB>17</SUB>F<SUB>6</SUB>N<SUB>3</SUB>O<SUB>4</SUB>S<SUB>2</SUB>", "mw": "433.38", "idout": "ABfRvW", "sample": [["Source:", "commercial source"], ["Purification:", "stated by supplier"], ["Purity:", "98 % (basis not specified)"]]}], "title": "Refraction, surface tension, and speed of sound: Refractive index (Na D-line)"}