{"expmeth": "Standard Abbe refractometry", "data": [[["0.0459"], ["298.15"], ["101"], ["1.5257", "0.0005"]]], "solvent": "dimethyl sulfoxide", "footer": "", "dhead": [["MolaLity of 1-ethyl-3-methylimidazolium nitrate, mol/kg", "Liquid"], ["Temperature, K", null], ["Pressure, kPa", null], ["Refractive index (Na D-line)", "Liquid"]], "components": [{"mw": "78.13", "idout": "AAPByN", "formula": "C<SUB>2</SUB>H<SUB>6</SUB>OS", "name": "dimethyl sulfoxide", "sample": [["Source:", "commercial source"], ["Purification:", "stated by supplier"], ["Purity:", "99 mass %"], ["Purity analysis:", "none used"]]}, {"sample": [["Source:", "commercial source"], ["Purification:", "stated by supplier"], ["Purity:", "99 mass %"], ["Purity analysis:", "dried in a desiccator"]], "name": "1-ethyl-3-methylimidazolium nitrate", "formula": "C<SUB>6</SUB>H<SUB>11</SUB>N<SUB>3</SUB>O<SUB>3</SUB>", "mw": "173.17", "idout": "AAhPAz"}], "title": "Refraction, surface tension, and speed of sound: Refractive index (Na D-line)", "phases": ["Liquid"], "constr": [], "ref": {"title": "Conductometric, refractometric and FT-IR spectroscopic study of [EMIm]NO3, [EMIm]CH3SO3, and [EMIm]OTs in N,N-dimethyl formamide, N,N-dimethyl acetamide and dimethyl sulphoxide", "full": "Roy, M. N.; Roy, M. C.; Choudhury, S.; Roy, P. K.; Dewan, R. (2015) Thermochim. Acta 599, 27-34."}}