{"components": [{"sample": [["Source:", "commercial source"], ["Initial purification:", "stated by supplier"], ["Initial purity:", "95 % (basis not specified)"], ["Final purification:", "Karl Fischer titration"], ["Final purity:", "0.05 water mass %"]], "name": "1-ethyl-3-methylimidazolium ethyl sulfate", "formula": "C<SUB>8</SUB>H<SUB>16</SUB>N<SUB>2</SUB>O<SUB>4</SUB>S", "idout": "AAtWDT", "mw": "236.29"}], "title": "Refraction, surface tension, and speed of sound: Refractive index (Na D-line)", "dhead": [["Temperature, K", null], ["Pressure, kPa", null], ["Refractive index (Na D-line)", "Liquid"]], "data": [[["298.2"], ["101.325"], ["1.4789", "0.0011"]], [["313.2"], ["101.325"], ["1.4745", "0.0011"]]], "solvent": null, "footer": "", "expmeth": "Standard Abbe refractometry", "ref": {"title": "Liquid-Liquid Equilibria for {1-Ethyl-3-methylimidazolium Diethylphosphate or 1-Ethyl-3-methylimidazolium Ethylsulfate} + 4,6-Dimethyldibenzothiophene + Dodecane Systems at 298.2 K and 313.2 K  ", "full": "Oliveira, L. H. d.; Aznar, M. (2011) J. Chem. Eng. Data 56(5), 2005-2012."}, "constr": [], "phases": ["Liquid"]}