{"expmeth": "Standard Abbe refractometry", "data": [[["298.15"], ["101.325"], ["1.5626", "0.0011"]]], "solvent": null, "footer": "", "dhead": [["Temperature, K", null], ["Pressure, kPa", null], ["Refractive index (Na D-line)", "Liquid"]], "components": [{"mw": "960.29", "idout": "ADcimD", "formula": "C<SUB>38</SUB>H<SUB>60</SUB>MnN<SUB>14</SUB>S<SUB>6</SUB>", "name": "1-butyl-3-methylimidazolium hexathiocyanatomanganate(II)", "sample": [["Source:", "synthesized by the authors"], ["Purification:", "NMR (proton)"], ["Purity:", "95 mass %(dried by vacuum heating;solvent extraction)"]]}], "title": "Refraction, surface tension, and speed of sound: Refractive index (Na D-line)", "phases": ["Liquid"], "ref": {"full": "Cabeza, O.; Varela, L. M.; Rilo, E.; Segade, L.; Dominguez-Perez, M.; Ausin, D.; de Pedro, I.; Fernandez, J. R.; Gonzalez, J.; Vazquez-Tato, M. P.; Arosa, Y.; Lopez-Lago, E.; de la Fuente, R.; Parajo, J. J.; Salgado, J.; Villanueva, M.; Matveev, V.; Ievlev, A.; Seijas, J. A. (2019) J. Mol. Liq. 283, 638-651.", "title": "Synthesis, microstructure and volumetry of novel metal thiocyanate ionic liquids with [BMIM] cation"}, "constr": []}