{"title": "Refraction, surface tension, and speed of sound: Refractive index", "components": [{"sample": [["Source:", "commercial source"], ["Initial purification:", "stated by supplier"], ["Initial purity:", "99.9 mass %"], ["Final purification:", "Karl Fischer titration"], ["Final purity:", "0.0112 water mass %(dried in a desiccator)"]], "name": "propan-1-ol", "formula": "C<SUB>3</SUB>H<SUB>8</SUB>O", "mw": "60.10", "idout": "AALcLI"}, {"formula": "C<SUB>12</SUB>H<SUB>23</SUB>F<SUB>6</SUB>N<SUB>2</SUB>P", "name": "1-octyl-3-methylimidazolium hexafluorophosphate", "idout": "ABNWoR", "mw": "340.29", "sample": [["Source:", "commercial source"], ["Initial purification:", "stated by supplier"], ["Initial purity:", "99 mass %"], ["Final purification:", "Karl Fischer titration"], ["Final purity:", "0.0164 water mass %(dried in a desiccator;dried by vacuum heating)"]]}], "dhead": [["Temperature, K", null], ["Mole fraction of 1-octyl-3-methylimidazolium hexafluorophosphate", "Liquid"], ["Pressure, kPa", null], ["Wavelength, A", "Liquid"], ["Refractive index", "Liquid"]], "footer": "", "data": [[["298.186"], ["0"], ["85"], ["632.8"], ["1.3818", "0.0002"]], [["298.186"], ["1"], ["85"], ["632.8"], ["1.4215", "0.0003"]], [["300.196"], ["0"], ["85"], ["632.8"], ["1.381", "0.0002"]], [["300.196"], ["1"], ["85"], ["632.8"], ["1.421", "0.0003"]], [["302.192"], ["0"], ["85"], ["632.8"], ["1.3802", "0.0002"]], [["302.192"], ["1"], ["85"], ["632.8"], ["1.4204", "0.0003"]], [["304.197"], ["0"], ["85"], ["632.8"], ["1.3793", "0.0002"]], [["304.197"], ["1"], ["85"], ["632.8"], ["1.4199", "0.0003"]], [["305.167"], ["0.5"], ["85"], ["632.8"], ["1.4114", "0.0002"]], [["305.17"], ["0.3"], ["85"], ["632.8"], ["1.4047", "0.0002"]], [["305.213"], ["0.6"], ["85"], ["632.8"], ["1.4137", "0.0002"]], [["305.22"], ["0.801"], ["85"], ["632.8"], ["1.4171", "0.0003"]], [["305.229"], ["0.698"], ["85"], ["632.8"], ["1.4154", "0.0003"]], [["305.257"], ["0.899"], ["85"], ["632.8"], ["1.4184", "0.0003"]], [["305.27"], ["0.399"], ["85"], ["632.8"], ["1.4084", "0.0002"]], [["306.178"], ["0.6"], ["85"], ["632.8"], ["1.4134", "0.0002"]], [["306.191"], ["0.5"], ["85"], ["632.8"], ["1.4111", "0.0002"]], [["306.196"], ["0.801"], ["85"], ["632.8"], ["1.4168", "0.0003"]], [["306.197"], ["0.3"], ["85"], ["632.8"], ["1.4044", "0.0002"]], [["306.204"], ["0.399"], ["85"], ["632.8"], ["1.4081", "0.0002"]], [["306.222"], ["0"], ["85"], ["632.8"], ["1.3785", "0.0002"]], [["306.222"], ["1"], ["85"], ["632.8"], ["1.4193", "0.0003"]], [["306.229"], ["0.698"], ["85"], ["632.8"], ["1.4151", "0.0003"]], [["306.245"], ["0.899"], ["85"], ["632.8"], ["1.4181", "0.0003"]], [["307.187"], ["0.801"], ["85"], ["632.8"], ["1.4165", "0.0003"]], [["307.188"], ["0.3"], ["85"], ["632.8"], ["1.404", "0.0002"]], [["307.208"], ["0.6"], ["85"], ["632.8"], ["1.4131", "0.0002"]], [["307.214"], ["0.399"], ["85"], ["632.8"], ["1.4078", "0.0002"]], [["307.236"], ["0.698"], ["85"], ["632.8"], ["1.4148", "0.0003"]], [["307.237"], ["0.899"], ["85"], ["632.8"], ["1.4178", "0.0003"]], [["307.29"], ["0.2"], ["85"], ["632.8"], ["1.3986", "0.0002"]], [["307.348"], ["0.5"], ["85"], ["632.8"], ["1.4108", "0.0002"]], [["308.185"], ["0.5"], ["85"], ["632.8"], ["1.4105", "0.0002"]], [["308.205"], ["0.3"], ["85"], ["632.8"], ["1.4037", "0.0002"]], [["308.207"], ["0.801"], ["85"], ["632.8"], ["1.4162", "0.0003"]], [["308.228"], ["0.899"], ["85"], ["632.8"], ["1.4175", "0.0003"]], [["308.236"], ["0"], ["85"], ["632.8"], ["1.3777", "0.0002"]], [["308.236"], ["1"], ["85"], ["632.8"], ["1.4188", "0.0003"]], [["308.238"], ["0.698"], ["85"], ["632.8"], ["1.4146", "0.0003"]], [["308.25"], ["0.399"], ["85"], ["632.8"], ["1.4075", "0.0002"]], [["308.257"], ["0.2"], ["85"], ["632.8"], ["1.3983", "0.0002"]], [["308.266"], ["0.6"], ["85"], ["632.8"], ["1.4128", "0.0002"]], [["308.323"], ["0.1"], ["85"], ["632.8"], ["1.3904", "0.0002"]], [["309.181"], ["0.399"], ["85"], ["632.8"], ["1.4072", "0.0002"]], [["309.189"], ["0.5"], ["85"], ["632.8"], ["1.4102", "0.0002"]], [["309.195"], ["0.3"], ["85"], ["632.8"], ["1.4034", "0.0002"]], [["309.206"], ["0.899"], ["85"], ["632.8"], ["1.4173", "0.0003"]], [["309.208"], ["0.6"], ["85"], ["632.8"], ["1.4125", "0.0002"]], [["309.22"], ["0.698"], ["85"], ["632.8"], ["1.4143", "0.0003"]], [["309.228"], ["0.801"], ["85"], ["632.8"], ["1.416", "0.0003"]], [["309.231"], ["0.1"], ["85"], ["632.8"], ["1.3901", "0.0002"]], [["309.276"], ["0.2"], ["85"], ["632.8"], ["1.3979", "0.0002"]], [["310.111"], ["0.3"], ["85"], ["632.8"], ["1.4031", "0.0002"]], [["310.19"], ["0.6"], ["85"], ["632.8"], ["1.4122", "0.0002"]], [["310.203"], ["0.5"], ["85"], ["632.8"], ["1.4099", "0.0002"]], [["310.207"], ["0.899"], ["85"], ["632.8"], ["1.417", "0.0003"]], [["310.227"], ["0.698"], ["85"], ["632.8"], ["1.414", "0.0003"]], [["310.232"], ["0.1"], ["85"], ["632.8"], ["1.3897", "0.0002"]], [["310.246"], ["0.801"], ["85"], ["632.8"], ["1.4157", "0.0003"]], [["310.251"], ["0"], ["85"], ["632.8"], ["1.3769", "0.0002"]], [["310.251"], ["1"], ["85"], ["632.8"], ["1.4183", "0.0003"]], [["310.26"], ["0.2"], ["85"], ["632.8"], ["1.3976", "0.0002"]], [["310.293"], ["0.399"], ["85"], ["632.8"], ["1.4069", "0.0002"]], [["311.198"], ["0.801"], ["85"], ["632.8"], ["1.4154", "0.0003"]], [["311.203"], ["0.6"], ["85"], ["632.8"], ["1.4119", "0.0002"]], [["311.205"], ["0.899"], ["85"], ["632.8"], ["1.4167", "0.0003"]], [["311.206"], ["0.399"], ["85"], ["632.8"], ["1.4066", "0.0002"]], [["311.207"], ["0.3"], ["85"], ["632.8"], ["1.4027", "0.0002"]], [["311.221"], ["0.5"], ["85"], ["632.8"], ["1.4096", "0.0002"]], [["311.242"], ["0.1"], ["85"], ["632.8"], ["1.3893", "0.0002"]], [["311.245"], ["0.698"], ["85"], ["632.8"], ["1.4138", "0.0003"]], [["311.253"], ["0.2"], ["85"], ["632.8"], ["1.3973", "0.0002"]], [["312.17"], ["0.3"], ["85"], ["632.8"], ["1.4024", "0.0002"]], [["312.17"], ["0.399"], ["85"], ["632.8"], ["1.4063", "0.0002"]], [["312.188"], ["0.6"], ["85"], ["632.8"], ["1.4116", "0.0002"]], [["312.188"], ["0.698"], ["85"], ["632.8"], ["1.4135", "0.0003"]], [["312.196"], ["0.801"], ["85"], ["632.8"], ["1.4151", "0.0003"]], [["312.196"], ["0.899"], ["85"], ["632.8"], ["1.4164", "0.0003"]], [["312.198"], ["0.2"], ["85"], ["632.8"], ["1.397", "0.0002"]], [["312.205"], ["0.5"], ["85"], ["632.8"], ["1.4093", "0.0002"]], [["312.243"], ["0"], ["85"], ["632.8"], ["1.376", "0.0002"]], [["312.243"], ["1"], ["85"], ["632.8"], ["1.4178", "0.0003"]], [["312.258"], ["0.1"], ["85"], ["632.8"], ["1.3889", "0.0002"]], [["313.235"], ["0.2"], ["85"], ["632.8"], ["1.3966", "0.0002"]], [["313.237"], ["0.1"], ["85"], ["632.8"], ["1.3886", "0.0002"]]], "solvent": null, "expmeth": "minimum deviation angle technique", "ref": {"title": "Liquid-liquid equilibria of 1-octyl-3-methylimidazolium hexafluorophosphate with 1-propanol or tert-butanol in the critical region", "full": "Cui, Z.; Guo, Y.; Yin, T.; Fan, D.; Zheng, P.; Shen, W. (2014) Fluid Phase Equilib. 365, 133-140."}, "constr": [], "phases": ["Liquid"]}