{"title": "Refraction, surface tension, and speed of sound: Refractive index (Na D-line)", "components": [{"sample": [["Source:", "synthesized by the authors"], ["Purity analysis:", "dried by vacuum heating"]], "mw": "127.16", "idout": "AAYXWt", "formula": "C<SUB>2</SUB>H<SUB>9</SUB>NO<SUB>3</SUB>S", "name": "ammonium ethanesulfonate"}, {"sample": [["Source:", "commercial source"], ["Initial purification:", "stated by supplier"], ["Initial purity:", "95 mass %"], ["Final purification:", "Karl Fischer titration"], ["Final purity:", "0.4 water mass %"]], "idout": "AAgmaR", "mw": "170.21", "name": "1-ethyl-3-methylimidazolium acetate", "formula": "C<SUB>8</SUB>H<SUB>14</SUB>N<SUB>2</SUB>O<SUB>2</SUB>"}], "dhead": [["Temperature, K", null], ["Mole fraction of ammonium ethanesulfonate", "Liquid"], ["Pressure, kPa", null], ["Refractive index (Na D-line)", "Liquid"]], "footer": "", "data": [[["298.15"], ["0"], ["101"], ["1.49997", "0.0011"]], [["298.15"], ["0.05"], ["101"], ["1.49869", "0.0011"]], [["298.15"], ["0.0999"], ["101"], ["1.49756", "0.0011"]], [["298.15"], ["0.1701"], ["101"], ["1.49488", "0.0011"]], [["303.15"], ["0"], ["101"], ["1.49867", "0.0011"]], [["303.15"], ["0.05"], ["101"], ["1.49735", "0.0011"]], [["303.15"], ["0.0999"], ["101"], ["1.49624", "0.0011"]], [["303.15"], ["0.1701"], ["101"], ["1.49359", "0.0011"]], [["308.15"], ["0"], ["101"], ["1.49732", "0.0011"]], [["308.15"], ["0.05"], ["101"], ["1.49599", "0.0011"]], [["308.15"], ["0.0999"], ["101"], ["1.49488", "0.0011"]], [["308.15"], ["0.1701"], ["101"], ["1.49223", "0.0011"]], [["313.15"], ["0"], ["101"], ["1.49597", "0.0011"]], [["313.15"], ["0.05"], ["101"], ["1.49464", "0.0011"]], [["313.15"], ["0.0999"], ["101"], ["1.49346", "0.0011"]], [["313.15"], ["0.1701"], ["101"], ["1.49081", "0.0011"]], [["318.15"], ["0"], ["101"], ["1.49465", "0.0011"]], [["318.15"], ["0.05"], ["101"], ["1.49325", "0.0011"]], [["318.15"], ["0.0999"], ["101"], ["1.49204", "0.0011"]], [["318.15"], ["0.1701"], ["101"], ["1.4894", "0.0011"]], [["323.15"], ["0"], ["101"], ["1.49331", "0.0011"]], [["323.15"], ["0.05"], ["101"], ["1.49184", "0.0011"]], [["323.15"], ["0.0999"], ["101"], ["1.4906", "0.0011"]], [["323.15"], ["0.1701"], ["101"], ["1.48797", "0.0011"]]], "solvent": null, "expmeth": "Standard Abbe refractometry", "ref": {"title": "Influence of Different Inorganic Salts on the Ionicity and Thermophysical Properties of 1-Ethyl-3-methylimidazolium Acetate Ionic Liquid", "full": "Oliveira, F. S.; Rebelo, L. P. N.; Marrucho, I. M. (2015) J. Chem. Eng. Data 60(3), 781-789."}, "constr": [], "phases": ["Liquid"]}