{"ref": {"title": "Temperature, Composition, and Alkyl Chain-Dependent Molecular Interactions between Imidazolium-Based Ionic Liquids with N-Methylaniline and N-Ethylaniline: Experimental and Theoretical Study", "full": "Master, Z.; Malek, N. I. (2020) J. Chem. Eng. Data 65(11), 5249-5265."}, "constr": [], "phases": ["Liquid"], "components": [{"sample": [["Source:", "synthesized by the authors"], ["Purification:", "not known"], ["Purity:", "99.3 mass %(dried by vacuum heating)"]], "idout": "AArYBF", "mw": "226.03", "formula": "C<SUB>8</SUB>H<SUB>15</SUB>BF<SUB>4</SUB>N<SUB>2</SUB>", "name": "1-butyl-3-methylimidazolium tetrafluoroborate"}], "title": "Refraction, surface tension, and speed of sound: Refractive index (Na D-line)", "dhead": [["Temperature, K", null], ["Pressure, kPa", null], ["Refractive index (Na D-line)", "Liquid"]], "data": [[["293.15"], ["101.3"], ["1.42229", "0.001"]], [["298.15"], ["101.3"], ["1.42178", "0.001"]], [["303.15"], ["101.3"], ["1.42052", "0.001"]], [["308.15"], ["101.3"], ["1.41918", "0.001"]], [["313.15"], ["101.3"], ["1.41788", "0.001"]], [["318.15"], ["101.3"], ["1.41662", "0.001"]], [["323.15"], ["101.3"], ["1.41532", "0.001"]]], "solvent": null, "footer": "", "expmeth": "Standard Abbe refractometry"}