{"title": "Refraction, surface tension, and speed of sound: Refractive index", "components": [{"formula": "C<SUB>17</SUB>H<SUB>26</SUB>N<SUB>2</SUB>O<SUB>3</SUB>S", "name": "1-phenyl-3,5-dimethyl-2-pentylpyrazolium methanesulfonate", "idout": "ABNEhp", "mw": "338.47", "sample": [["Source:", "synthesized by the authors"], ["Purification:", "Karl Fischer titration"], ["Purity:", "0.32 water mass %"]]}], "dhead": [["Temperature, K", null], ["Pressure, kPa", null], ["Wavelength, A", "Liquid"], ["Refractive index", "Liquid"]], "footer": "", "data": [[["298"], ["101.325"], ["633"], ["1.5141", "0.0011"]], [["308"], ["101.325"], ["633"], ["1.5117", "0.0011"]], [["313"], ["101.325"], ["633"], ["1.5104", "0.0011"]], [["333"], ["101.325"], ["633"], ["1.5043", "0.0011"]]], "solvent": null, "expmeth": "Standard Abbe refractometry", "constr": [], "ref": {"full": "Ozdemir, M. C.; Ozgun, B. (2014) J. Mol. Liq. 200, 129-135.", "title": "Phenyl/alkyl-substituted-3,5-dimethylpyrazolium ionic liquids"}, "phases": ["Liquid"]}