{"constr": [], "ref": {"full": "Koller, T. M.; Schmid, S. R.; Sachnov, S. J.; Rausch, M. H.; Wasserscheid, P.; Froba, A. P. (2014) Int. J. Thermophys. 35(2), 195-217.", "title": "Measurement and Prediction of the Thermal Conductivity of Tricyanomethanide- and Tetracyanoborate-Based Imidazolium Ionic Liquids"}, "phases": ["Liquid"], "title": "Refraction, surface tension, and speed of sound: Refractive index (Na D-line)", "components": [{"sample": [["Source:", "synthesized by the authors"], ["Initial purification:", "NMR (proton)"], ["Initial purity:", "99 mol %"], ["Final purification:", "Karl Fischer titration"], ["Final purity:", "0.0676 water mass %(dried with chemical reagent;dried by oven heating)"]], "formula": "C<SUB>16</SUB>H<SUB>23</SUB>BN<SUB>6</SUB>", "name": "1-methyl-3-octylimidazolium tetracyanoborate", "idout": "ABHiuv", "mw": "310.21"}], "dhead": [["Temperature, K", null], ["Pressure, kPa", null], ["Refractive index (Na D-line)", "Liquid"]], "footer": "", "data": [[["283.15"], ["101.325"], ["1.4603", "0.0006"]], [["293.15"], ["101.325"], ["1.457", "0.0006"]], [["303.15"], ["101.325"], ["1.4541", "0.0006"]], [["313.15"], ["101.325"], ["1.4509", "0.0006"]]], "solvent": null, "expmeth": "Standard Abbe refractometry"}