{"title": "Refraction, surface tension, and speed of sound: Refractive index (Na D-line)", "components": [{"sample": [["Source:", "commercial source"], ["Purification:", "stated by supplier"], ["Purity:", "99 mol %"]], "idout": "AARlpN", "mw": "92.14", "formula": "C<SUB>7</SUB>H<SUB>8</SUB>", "name": "toluene"}, {"mw": "416.35", "idout": "ABcDLM", "name": "1-butylpyridinium bis[(trifluoromethyl)sulfonyl]imide", "formula": "C<SUB>11</SUB>H<SUB>14</SUB>F<SUB>6</SUB>N<SUB>2</SUB>O<SUB>4</SUB>S<SUB>2</SUB>", "sample": [["Source:", "commercial source"], ["Purification:", "stated by supplier"], ["Purity:", "99 mass %"], ["Purity analysis:", "dried by vacuum heating"]]}], "dhead": [["Temperature, K", null], ["Mole fraction of toluene", "Liquid"], ["Pressure, kPa", null], ["Refractive index (Na D-line)", "Liquid"]], "footer": "", "data": [[["293.15"], ["0"], ["100"], ["1.4435", "0.0005"]], [["293.15"], ["0.0994"], ["100"], ["1.4457", "0.0005"]], [["293.15"], ["0.2022"], ["100"], ["1.4485", "0.0005"]], [["293.15"], ["0.2939"], ["100"], ["1.4516", "0.0005"]], [["293.15"], ["0.3972"], ["100"], ["1.4555", "0.0005"]], [["293.15"], ["0.5025"], ["100"], ["1.4601", "0.0005"]], [["293.15"], ["0.6068"], ["100"], ["1.4653", "0.0005"]], [["293.15"], ["0.7033"], ["100"], ["1.4708", "0.0005"]], [["293.15"], ["1"], ["100"], ["1.4962", "0.0005"]], [["298.15"], ["0"], ["100"], ["1.442", "0.0005"]], [["298.15"], ["0.0994"], ["100"], ["1.4441", "0.0005"]], [["298.15"], ["0.2022"], ["100"], ["1.4469", "0.0005"]], [["298.15"], ["0.2939"], ["100"], ["1.4499", "0.0005"]], [["298.15"], ["0.3972"], ["100"], ["1.4537", "0.0005"]], [["298.15"], ["0.5025"], ["100"], ["1.4582", "0.0005"]], [["298.15"], ["0.6068"], ["100"], ["1.4634", "0.0005"]], [["298.15"], ["0.7033"], ["100"], ["1.4688", "0.0005"]], [["298.15"], ["1"], ["100"], ["1.4935", "0.0005"]], [["303.15"], ["0"], ["100"], ["1.4407", "0.0005"]], [["303.15"], ["0.0994"], ["100"], ["1.4429", "0.0005"]], [["303.15"], ["0.2022"], ["100"], ["1.4457", "0.0005"]], [["303.15"], ["0.2939"], ["100"], ["1.4485", "0.0005"]], [["303.15"], ["0.3972"], ["100"], ["1.4521", "0.0005"]], [["303.15"], ["0.5025"], ["100"], ["1.4565", "0.0005"]], [["303.15"], ["0.6068"], ["100"], ["1.4615", "0.0005"]], [["303.15"], ["0.7033"], ["100"], ["1.4669", "0.0005"]], [["303.15"], ["1"], ["100"], ["1.4909", "0.0005"]], [["308.15"], ["0"], ["100"], ["1.4393", "0.0005"]], [["308.15"], ["0.0994"], ["100"], ["1.4415", "0.0005"]], [["308.15"], ["0.2022"], ["100"], ["1.4442", "0.0005"]], [["308.15"], ["0.2939"], ["100"], ["1.447", "0.0005"]], [["308.15"], ["0.3972"], ["100"], ["1.4505", "0.0005"]], [["308.15"], ["0.5025"], ["100"], ["1.4548", "0.0005"]], [["308.15"], ["0.6068"], ["100"], ["1.4597", "0.0005"]], [["308.15"], ["0.7033"], ["100"], ["1.465", "0.0005"]], [["308.15"], ["1"], ["100"], ["1.4878", "0.0005"]], [["313.15"], ["0"], ["100"], ["1.4377", "0.0005"]], [["313.15"], ["0.0994"], ["100"], ["1.4399", "0.0005"]], [["313.15"], ["0.2022"], ["100"], ["1.4426", "0.0005"]], [["313.15"], ["0.2939"], ["100"], ["1.4453", "0.0005"]], [["313.15"], ["0.3972"], ["100"], ["1.4489", "0.0005"]], [["313.15"], ["0.5025"], ["100"], ["1.4531", "0.0005"]], [["313.15"], ["0.6068"], ["100"], ["1.4581", "0.0005"]], [["313.15"], ["0.7033"], ["100"], ["1.4632", "0.0005"]], [["313.15"], ["1"], ["100"], ["1.485", "0.0005"]]], "solvent": null, "expmeth": "Standard Abbe refractometry", "constr": [], "ref": {"full": "Warmiska, D.; Cichowska-Kopczyska, I. (2020) J. Mol. Liq. 304, 112754.", "title": "Thermodynamic study of binary mixtures of toluene with ionic liquids, 1-butyl-1-methylpyrrolidinium bis(trifluoromethylsulfonyl)imide, 1-hexyl-1-methylpyrrolidinium bis(trifluoromethylsulfonyl)imide and 1-butylpyridinium bis(trifluoromethylsulfonyl)imide"}, "phases": ["Liquid"]}