{"dhead": [["Mole fraction of butanone", "Liquid"], ["Pressure, kPa", null], ["Temperature, K", null], ["Refractive index (Na D-line)", "Liquid"]], "components": [{"mw": "72.11", "idout": "AANtck", "name": "butanone", "formula": "C<SUB>4</SUB>H<SUB>8</SUB>O", "sample": [["Source:", "commercial source"], ["Initial purification:", "gas chromatography"], ["Initial purity:", "99.9 mass %"], ["Final purification:", "Karl Fischer titration"], ["Final purity:", "0.002 water mass %(molecular sieve treatment)"]]}, {"name": "tetradecyl(trihexyl)phosphonium dicyanamide", "formula": "C<SUB>34</SUB>H<SUB>68</SUB>N<SUB>3</SUB>P", "idout": "ACBnAk", "mw": "549.91", "sample": [["Source:", "commercial source"], ["Initial purification:", "stated by supplier"], ["Initial purity:", "95.0 mass %"], ["Final purification:", "Karl Fischer titration"], ["Final purity:", "0.07 water mass %(molecular sieve treatment)"]]}], "title": "Refraction, surface tension, and speed of sound: Refractive index (Na D-line)", "expmeth": "Standard Abbe refractometry", "data": [[["0.0488"], ["100"], ["298.15"], ["1.4821", "0.001"]], [["0.1"], ["100"], ["298.15"], ["1.4807", "0.001"]], [["0.1993"], ["100"], ["298.15"], ["1.4793", "0.0009"]], [["0.2996"], ["100"], ["298.15"], ["1.477", "0.0008"]], [["0.4001"], ["100"], ["298.15"], ["1.4744", "0.0007"]], [["0.4996"], ["100"], ["298.15"], ["1.469", "0.0007"]], [["0.5996"], ["100"], ["298.15"], ["1.4635", "0.0006"]], [["0.7"], ["100"], ["298.15"], ["1.4566", "0.0005"]], [["0.8"], ["100"], ["298.15"], ["1.4465", "0.0005"]], [["0.9"], ["100"], ["298.15"], ["1.4269", "0.0004"]], [["0.9501"], ["100"], ["298.15"], ["1.4111", "0.0004"]]], "solvent": null, "footer": "", "constr": [], "ref": {"full": "Lee, K.-H.; Park, S.-J.; Choi, Y.-Y. (2017) Korean J. Chem. Eng. 34(1), 214-224.", "title": "Density, refractive index and kinematic viscosity of MIPK, MEK and phosphonium-based ionic liquids and the excess and deviation properties of their binary systems"}, "phases": ["Liquid"]}