{"components": [{"sample": [["Source:", "synthesized by the authors"], ["Initial purification:", "NMR (proton)"], ["Initial purity:", "99 mass %"], ["Final purification:", "acid-base titration;Karl Fischer titration"], ["Final purity:", "0.02 halide impurity mass %;0.0001 water mass %(dried by vacuum heating)"]], "mw": "285.34", "idout": "ABCtec", "formula": "C<SUB>13</SUB>H<SUB>23</SUB>N<SUB>3</SUB>O<SUB>4</SUB>", "name": "1-butyl-3-methylimidazolium (S)-2-amino-4-carboxybutanoate"}], "title": "Refraction, surface tension, and speed of sound: Refractive index (Na D-line)", "dhead": [["Temperature, K", null], ["Pressure, kPa", null], ["Refractive index (Na D-line)", "Liquid"]], "solvent": null, "data": [[["298.15"], ["101.325"], ["1.5209", "0.0015"]], [["303.15"], ["101.325"], ["1.5194", "0.0015"]], [["308.15"], ["101.325"], ["1.5182", "0.0015"]], [["313.15"], ["101.325"], ["1.5168", "0.0015"]]], "footer": "", "expmeth": "Standard Abbe refractometry", "ref": {"title": "Thermodynamic Properties of Binary Mixtures of the Amino Acid Ionic Liquids [Bmim][Glu] or [Bmim][Gly] with Methanol at T = 298.15 to 313.15 K", "full": "Yu, Z.; Gao, H.; Wang, H.; Chen, L. (2012) J. Solution Chem. 41, 173-186."}, "constr": [], "phases": ["Liquid"]}