{"ref": {"full": "Basaiahgari, Anusha; Panda, Somenath; Gardas, Ramesh L. (2018) J. Chem. Eng. Data 63(7), 2613-2627.", "title": "Effect of Ethylene, Diethylene, and Triethylene Glycols and Glycerol on the Physicochemical Properties and Phase Behavior of Benzyltrimethyl and Benzyltributylammonium Chloride Based Deep Eutectic Solvents at 283.15-343.15 K"}, "constr": [], "phases": ["Liquid"], "title": "Refraction, surface tension, and speed of sound: Refractive index (Na D-line)", "components": [{"formula": "C<SUB>19</SUB>H<SUB>34</SUB>ClN", "name": "benzyltributylammonium chloride", "mw": "311.94", "idout": "ABHzIS", "sample": [["Source:", "commercial source"], ["Purification:", "stated by supplier"], ["Purity:", "98 mass %"]]}, {"idout": "AAUVWV", "mw": "106.12", "name": "diethylene glycol", "formula": "C<SUB>4</SUB>H<SUB>10</SUB>O<SUB>3</SUB>", "sample": [["Source:", "commercial source"], ["Purification:", "stated by supplier"], ["Purity:", "99 mass %"]]}], "dhead": [["Temperature, K", null], ["Pressure, kPa", null], ["Mole fraction of benzyltributylammonium chloride", "Liquid"], ["Refractive index (Na D-line)", "Liquid"]], "footer": "", "data": [[["283.15"], ["100"], ["0.25"], ["1.4957", "0.0011"]], [["288.15"], ["100"], ["0.25"], ["1.4945", "0.0011"]], [["293.15"], ["100"], ["0.25"], ["1.4929", "0.0011"]], [["298.15"], ["100"], ["0.25"], ["1.4909", "0.0011"]], [["303.15"], ["100"], ["0.25"], ["1.4893", "0.0011"]], [["308.15"], ["100"], ["0.25"], ["1.4878", "0.0011"]], [["313.15"], ["100"], ["0.25"], ["1.486", "0.0011"]], [["318.15"], ["100"], ["0.25"], ["1.4849", "0.0011"]], [["323.15"], ["100"], ["0.25"], ["1.4836", "0.0011"]], [["328.15"], ["100"], ["0.25"], ["1.4815", "0.0011"]], [["333.15"], ["100"], ["0.25"], ["1.4804", "0.0011"]], [["338.15"], ["100"], ["0.25"], ["1.4786", "0.0011"]], [["343.15"], ["100"], ["0.25"], ["1.4776", "0.0011"]]], "solvent": null, "expmeth": "Standard Abbe refractometry"}