{"expmeth": "Standard Abbe refractometry", "data": [[["0.25"], ["293.2"], ["100"], ["1.4842", "0.004"]], [["0.25"], ["303.2"], ["100"], ["1.4831", "0.004"]], [["0.25"], ["313.1"], ["100"], ["1.4804", "0.004"]], [["0.25"], ["323.1"], ["100"], ["1.4779", "0.004"]], [["0.25"], ["333.2"], ["100"], ["1.4749", "0.004"]], [["0.25"], ["343"], ["100"], ["1.472", "0.004"]], [["0.25"], ["353.4"], ["100"], ["1.469", "0.004"]], [["0.3333"], ["293.4"], ["100"], ["1.4889", "0.004"]], [["0.3333"], ["303"], ["100"], ["1.4861", "0.004"]], [["0.3333"], ["312.9"], ["100"], ["1.4832", "0.004"]], [["0.3333"], ["323.1"], ["100"], ["1.4802", "0.004"]], [["0.3333"], ["333.5"], ["100"], ["1.4773", "0.004"]], [["0.3333"], ["343.7"], ["100"], ["1.4744", "0.004"]], [["0.3333"], ["353.2"], ["100"], ["1.4714", "0.004"]], [["0.5"], ["293.2"], ["100"], ["1.491", "0.004"]], [["0.5"], ["303.2"], ["100"], ["1.4891", "0.004"]], [["0.5"], ["313.6"], ["100"], ["1.4864", "0.004"]], [["0.5"], ["323.1"], ["100"], ["1.4839", "0.004"]], [["0.5"], ["333.3"], ["100"], ["1.4809", "0.004"]], [["0.5"], ["343"], ["100"], ["1.4783", "0.004"]], [["0.5"], ["353"], ["100"], ["1.4752", "0.004"]]], "solvent": "glycerol", "footer": "", "dhead": [["Mole ratio to solvent: tetrapropylammonium bromide", "Liquid"], ["Temperature, K", null], ["Pressure, kPa", null], ["Refractive index (Na D-line)", "Liquid"]], "components": [{"mw": "92.09", "idout": "AARkmK", "name": "glycerol", "formula": "C<SUB>3</SUB>H<SUB>8</SUB>O<SUB>3</SUB>", "sample": [["Source:", "commercial source"], ["Purification:", "stated by supplier"], ["Purity:", "98 mass %"]]}, {"sample": [["Source:", "commercial source"], ["Purification:", "stated by supplier"], ["Purity:", "98 mass %"]], "idout": "AAzKlv", "mw": "266.27", "formula": "C<SUB>12</SUB>H<SUB>28</SUB>BrN", "name": "tetrapropylammonium bromide"}], "title": "Refraction, surface tension, and speed of sound: Refractive index (Na D-line)", "phases": ["Liquid"], "constr": [], "ref": {"full": "Jibril, B.; Mjalli, F.; Naser, J.; Gano, Z. (2014) J. Mol. Liq. 199, 462-469.", "title": "New tetrapropylammonium bromide-based deep eutectic solvents: Synthesis and characterizations"}}