{"ref": {"title": "VLE measurement of binary systems 1-butyl-3-methylimidazolium-based ionic liquids and ethanol or water", "full": "Graczova, Elena; Steltenpohl, Pavol (2024) J. Chem. Thermodyn. 188, 107178."}, "constr": [], "phases": ["Liquid"], "title": "Refraction, surface tension, and speed of sound: Refractive index (Na D-line)", "components": [{"name": "1-butyl-3-methylimidazolium methyl sulfate", "formula": "C<SUB>9</SUB>H<SUB>18</SUB>N<SUB>2</SUB>O<SUB>4</SUB>S", "mw": "250.31", "idout": "AAwHNg", "sample": [["Source:", "commercial source"], ["Initial purification:", "stated by supplier"], ["Initial purity:", "99.6 mass %"], ["Final purification:", "Karl Fischer titration"], ["Final purity:", "0.001 water mass %(molecular sieve treatment)"]]}], "dhead": [["Temperature, K", null], ["Pressure, kPa", null], ["Refractive index (Na D-line)", "Liquid"]], "footer": "", "data": [[["298.15"], ["101.325"], ["1.4777", "0.0005"]]], "solvent": null, "expmeth": "Standard Abbe refractometry"}