{"components": [{"sample": [["Source:", "synthesized by the authors"], ["Purification:", "estimated by the compiler"], ["Purity:", "99 mass %(dried by vacuum heating)"]], "mw": "265.04", "idout": "AAyyWT", "formula": "C<SUB>8</SUB>H<SUB>10</SUB>BF<SUB>2</SUB>NO<SUB>4</SUB>S", "name": "3-ethyl-4-methylthiazolium difluoro(oxalato)borate"}], "title": "Refraction, surface tension, and speed of sound: Refractive index (Na D-line)", "dhead": [["Temperature, K", null], ["Pressure, kPa", null], ["Refractive index (Na D-line)", "Liquid"]], "data": [[["313.15"], ["101.325"], ["1.4772", "0.0005"]], [["323.15"], ["101.325"], ["1.4742", "0.0005"]], [["333.15"], ["101.325"], ["1.4705", "0.0005"]], [["343.15"], ["101.325"], ["1.4673", "0.0005"]], [["353.15"], ["101.325"], ["1.4636", "0.0005"]]], "solvent": null, "footer": "", "expmeth": "Standard Abbe refractometry", "ref": {"title": "Thiazolium-based ionic liquids: Synthesis, characterization and physicochemical properties", "full": "Fei, Y.; Chen, Z.; Zhang, J.; Yu, M.; Kong, J.; Wu, Z.; Cao, J.; Zhang, J. (2021) J. Mol. Liq. 342, 117553."}, "constr": [], "phases": ["Liquid"]}