{"components": [{"sample": [["Source:", "synthesized by the authors"], ["Initial purification:", "not known"], ["Initial purity:", "99 mass %"], ["Final purification:", "Karl Fischer titration"], ["Final purity:", "0.0070 water mass %"]], "name": "triethylammonium hydrogen sulfate", "formula": "C<SUB>6</SUB>H<SUB>17</SUB>NO<SUB>4</SUB>S", "mw": "199.26", "idout": "AAmQWi"}], "title": "Refraction, surface tension, and speed of sound: Refractive index (Na D-line)", "dhead": [["Pressure, kPa", null], ["Temperature, K", null], ["Refractive index (Na D-line)", "Liquid"]], "data": [[["101"], ["298.15"], ["1.516", "0.001"]]], "solvent": null, "footer": "", "expmeth": "Standard Abbe refractometry", "constr": [], "ref": {"title": "Thermophysical Properties of Aqueous Solution of Ammonium- Based Ionic Liquids", "full": "Umapathi, R.; Attri, P.; Venkatesu, P. (2014) J. Phys. Chem. B 118, 5971-5982."}, "phases": ["Liquid"]}