{"title": "Refraction, surface tension, and speed of sound: Refractive index (Na D-line)", "components": [{"sample": [["Source:", "commercial source"], ["Initial purification:", "stated by supplier"], ["Initial purity:", "98 mass %"], ["Final purification:", "Karl Fischer titration"], ["Final purity:", "0.03 water mass %(de-gassed by boiling or ultrasonically;molecular sieve treatment)"]], "mw": "208.23", "idout": "AAoCnc", "name": "1,3-dimethylimidazolium methylsulfate", "formula": "C<SUB>6</SUB>H<SUB>12</SUB>N<SUB>2</SUB>O<SUB>4</SUB>S"}], "dhead": [["Temperature, K", null], ["Pressure, kPa", null], ["Refractive index (Na D-line)", "Liquid"]], "footer": "", "data": [[["298.15"], ["101.325"], ["1.4827", "0.00095"]]], "solvent": null, "expmeth": "Standard Abbe refractometry", "ref": {"title": "Ternary (liquid + liquid) equilibria of the azeotrope (ethyl acetate + 2-propanol) with different ionic liquids at T = 298.15 K", "full": "Pereiro, A. B.; Rodriguez, A. (2007) J. Chem. Thermodyn. 39(12), 1608-1613."}, "constr": [], "phases": ["Liquid"]}