{"title": "Refraction, surface tension, and speed of sound: Refractive index (Na D-line)", "components": [{"formula": "C<SUB>2</SUB>H<SUB>6</SUB>OS", "name": "dimethyl sulfoxide", "mw": "78.13", "idout": "AAPByN", "sample": [["Source:", "commercial source"], ["Purification:", "stated by supplier"], ["Purity:", "99.8 mass %"]]}, {"sample": [["Source:", "commercial source"], ["Initial purification:", "stated by supplier"], ["Initial purity:", "98 mass %"], ["Final purification:", "Karl Fischer titration"], ["Final purity:", "0.0001 water mass %(de-gassed by evacuation)"]], "idout": "ABChJv", "mw": "284.19", "formula": "C<SUB>8</SUB>H<SUB>15</SUB>F<SUB>6</SUB>N<SUB>2</SUB>P", "name": "1-butyl-3-methylimidazolium hexafluorophosphate"}], "dhead": [["Mole fraction of 1-butyl-3-methylimidazolium hexafluorophosphate", "Liquid"], ["Pressure, kPa", null], ["Temperature, K", null], ["Refractive index (Na D-line)", "Liquid"]], "footer": "", "data": [[["0.05"], ["101"], ["298.15"], ["1.4676", "0.0006"]], [["0.0997"], ["101"], ["298.15"], ["1.4606", "0.0006"]], [["0.1477"], ["101"], ["298.15"], ["1.4546", "0.0006"]], [["0.1977"], ["101"], ["298.15"], ["1.4491", "0.0006"]], [["0.2995"], ["101"], ["298.15"], ["1.4396", "0.0006"]], [["0.3524"], ["101"], ["298.15"], ["1.4361", "0.0006"]], [["0.3997"], ["101"], ["298.15"], ["1.4331", "0.0006"]], [["0.4328"], ["101"], ["298.15"], ["1.4309", "0.0007"]], [["0.5018"], ["101"], ["298.15"], ["1.4278", "0.0007"]], [["0.598"], ["101"], ["298.15"], ["1.4226", "0.0007"]], [["0.7043"], ["101"], ["298.15"], ["1.4182", "0.0007"]], [["0.7812"], ["101"], ["298.15"], ["1.4158", "0.0007"]], [["0.893"], ["101"], ["298.15"], ["1.4125", "0.0007"]]], "solvent": null, "expmeth": "Standard Abbe refractometry", "ref": {"full": "Zafarani-Moattar, M. T.; Majdan-Cegincara, R. (2007) J. Chem. Eng. Data 52(6), 2359-2364.", "title": "Viscosity, Density, Speed of Sound, and Refractive Index of Binary Mixtures of Organic Solvent + Ionic Liquid, 1-Butyl-3-methylimidazolium Hexafluorophosphate at 298.15 K"}, "constr": [], "phases": ["Liquid"]}