{"constr": [], "ref": {"title": "Physicochemical properties of binary mixtures of 1,1,3,3-tetramethylguanidine imidazolide ionic liquid with water and alcohols", "full": "Ye, F.; Zhu, J.; Yu, K.; Zhu, R.; Xu, Y.; Chen, J.; Chen, L. (2016) J. Chem. Thermodyn. 97, 39-47."}, "phases": ["Liquid"], "title": "Refraction, surface tension, and speed of sound: Refractive index (Na D-line)", "components": [{"sample": [["Source:", "commercial source"], ["Initial purification:", "stated by supplier"], ["Initial purity:", "99.5 mass %"], ["Final purification:", "gas chromatography"], ["Final purity:", "99.8 mass %(fractional distillation)"]], "idout": "AAONVE", "mw": "74.12", "formula": "C<SUB>4</SUB>H<SUB>10</SUB>O", "name": "butan-1-ol"}, {"name": "1,1,3,3-tetramethylguanidinium imidazol-1-ide", "formula": "C<SUB>8</SUB>H<SUB>17</SUB>N<SUB>5</SUB>", "idout": "AAjMIW", "mw": "183.26", "sample": [["Source:", "synthesized by the authors"], ["Purification:", "NMR (proton);Karl Fischer titration"], ["Purity:", "98 mass %;0.02 water mass %(dried by vacuum heating)"]]}], "dhead": [["Mole fraction of 1,1,3,3-tetramethylguanidinium imidazol-1-ide", "Liquid"], ["Pressure, kPa", null], ["Temperature, K", null], ["Refractive index (Na D-line)", "Liquid"]], "footer": "", "data": [[["0"], ["100"], ["298.15"], ["1.3975", "0.0005"]], [["0.0499"], ["100"], ["298.15"], ["1.4074", "0.0005"]], [["0.1004"], ["100"], ["298.15"], ["1.4159", "0.0005"]], [["0.1999"], ["100"], ["298.15"], ["1.4316", "0.0005"]], [["0.2997"], ["100"], ["298.15"], ["1.4443", "0.0005"]], [["0.3985"], ["100"], ["298.15"], ["1.4545", "0.0005"]], [["0.4997"], ["100"], ["298.15"], ["1.4641", "0.0005"]], [["0.6499"], ["100"], ["298.15"], ["1.4748", "0.0006"]], [["0.8002"], ["100"], ["298.15"], ["1.4839", "0.0006"]], [["0.9004"], ["100"], ["298.15"], ["1.4888", "0.0006"]], [["1"], ["100"], ["298.15"], ["1.4943", "0.0006"]]], "solvent": null, "expmeth": "Standard Abbe refractometry"}