{"expmeth": "Standard Abbe refractometry", "solvent": null, "data": [[["283.15"], ["101.325"], ["1.4831", "0.0005"]], [["293.15"], ["101.325"], ["1.4804", "0.0005"]], [["303.15"], ["101.325"], ["1.4781", "0.0005"]], [["313.15"], ["101.325"], ["1.4753", "0.0005"]], [["323.15"], ["101.325"], ["1.4729", "0.0005"]], [["333.15"], ["101.325"], ["1.4704", "0.0005"]], [["343.15"], ["101.325"], ["1.4678", "0.0005"]]], "footer": "", "dhead": [["Temperature, K", null], ["Pressure, kPa", null], ["Refractive index (Na D-line)", "Liquid"]], "components": [{"mw": "250.31", "idout": "AAwHNg", "formula": "C<SUB>9</SUB>H<SUB>18</SUB>N<SUB>2</SUB>O<SUB>4</SUB>S", "name": "1-butyl-3-methylimidazolium methyl sulfate", "sample": [["Source:", "commercial source"], ["Initial purification:", "stated by supplier"], ["Initial purity:", "95 mass %"], ["Final purification:", "Karl Fischer titration;NMR (proton)"], ["Final purity:", "0.0050 water mass %;99 mass %(dried by vacuum heating)"]]}], "title": "Refraction, surface tension, and speed of sound: Refractive index (Na D-line)", "phases": ["Liquid"], "ref": {"title": "Measurements of the density, refractive index, electrical conductivity, thermal conductivity and dynamic viscosity for tributylmethylphosphonium and methylsulfate based ionic liquids", "full": "Rodil, Eva; Arce Jr., Alberto; Arce, Alberto; Soto, Ana (2018) Thermochim. Acta 664, 81-90."}, "constr": []}