{"dhead": [["Temperature, K", null], ["Pressure, kPa", null], ["Refractive index (Na D-line)", "Liquid mixture 1"]], "components": [{"sample": [["Source:", "commercial source"], ["Purification:", "estimated by the compiler"], ["Purity:", "99 % (basis not specified)"], ["Purity analysis:", "none used"]], "formula": "C<SUB>4</SUB>H<SUB>10</SUB>O", "name": "butan-1-ol", "mw": "74.12", "idout": "AAONVE"}, {"sample": [["Source:", "commercial source"], ["Purity analysis:", "dried in a desiccator;dried by vacuum heating"]], "formula": "C<SUB>10</SUB>H<SUB>19</SUB>BF<SUB>4</SUB>N<SUB>2</SUB>", "name": "1-hexyl-3-methylimidazolium tetrafluoroborate", "mw": "254.08", "idout": "AAwscj"}], "title": "Refraction, surface tension, and speed of sound: Refractive index (Na D-line)", "expmeth": "minimum beam deflection method", "solvent": null, "data": [[["293.37"], ["101.325"], ["1.39653", "0.0006"]], [["294.63"], ["101.325"], ["1.39607", "0.0006"]], [["296.43"], ["101.325"], ["1.39567", "0.0006"]], [["298.35"], ["101.325"], ["1.39524", "0.0006"]], [["299.95"], ["101.325"], ["1.39517", "0.0006"]], [["301.11"], ["101.325"], ["1.39515", "0.0006"]], [["301.91"], ["101.325"], ["1.39527", "0.0006"]], [["302.48"], ["101.325"], ["1.39554", "0.0006"]], [["302.72"], ["101.325"], ["1.39573", "0.0006"]], [["303"], ["101.325"], ["1.39602", "0.0006"]], [["303.22"], ["101.325"], ["1.39632", "0.0006"]], [["303.35"], ["101.325"], ["1.39664", "0.0006"]], [["303.45"], ["101.325"], ["1.39695", "0.0006"]], [["303.54"], ["101.325"], ["1.39738", "0.0006"]], [["303.59"], ["101.325"], ["1.39771", "0.00062"]], [["303.61"], ["101.325"], ["1.39814", "0.00066"]], [["303.63"], ["101.325"], ["1.39879", "0.00066"]]], "footer": "", "ref": {"title": "The liquid liquid coexistence of binary mixtures of the room temperature ionic liquid 1-methyl-3-hexylimidazolium tetrafluoroborate with alcohols", "full": "Wagner, M.; Stanga, O.; Schroer, W. (2004) Phys. Chem. Chem. Phys. 6(18), 4421-4431."}, "constr": [], "phases": ["Liquid mixture 1", "Liquid mixture 2"]}