{"expmeth": "Standard Abbe refractometry", "data": [[["0.1"], ["298.15"], ["0.5"], ["101"], ["1.37389", "0.0006"]], [["0.15"], ["298.15"], ["0.5"], ["101"], ["1.37467", "0.0006"]], [["0.2"], ["298.15"], ["0.5"], ["101"], ["1.37589", "0.0006"]], [["0.3"], ["298.15"], ["0.5"], ["101"], ["1.37749", "0.0006"]], [["0.35"], ["298.15"], ["0.5"], ["101"], ["1.37868", "0.0006"]]], "solvent": "1-methyl-1-propylpyrrolidinium bis[(trifluoromethyl)sulfonyl]imide + acetonitrile", "footer": "", "dhead": [["Weight fraction of lithium bis((trifluoromethyl)sulfonyl)amide", "Liquid"], ["Temperature, K", null], ["Solvent: Weight fraction of 1-methyl-1-propylpyrrolidinium bis[(trifluoromethyl)sulfonyl]imide", "Liquid"], ["Pressure, kPa", null], ["Refractive index (Na D-line)", "Liquid"]], "components": [{"mw": "287.08", "idout": "ABDKGa", "name": "lithium bis((trifluoromethyl)sulfonyl)amide", "formula": "C<SUB>2</SUB>F<SUB>6</SUB>LiNO<SUB>4</SUB>S<SUB>2</SUB>", "sample": [["Source:", "commercial source"], ["Purification:", "stated by supplier"], ["Purity:", "99 % (basis not specified)"]]}, {"mw": "408.37", "idout": "ABabds", "formula": "C<SUB>10</SUB>H<SUB>18</SUB>F<SUB>6</SUB>N<SUB>2</SUB>O<SUB>4</SUB>S<SUB>2</SUB>", "name": "1-methyl-1-propylpyrrolidinium bis[(trifluoromethyl)sulfonyl]imide", "sample": [["Source:", "commercial source"], ["Purification:", "stated by supplier"], ["Purity:", "99 % (basis not specified)"]]}, {"sample": [["Source:", "commercial source"], ["Purification:", "stated by supplier"], ["Purity:", "99.7 % (basis not specified)"]], "mw": "41.05", "idout": "AAHueB", "formula": "C<SUB>2</SUB>H<SUB>3</SUB>N", "name": "acetonitrile"}], "title": "Refraction, surface tension, and speed of sound: Refractive index (Na D-line)", "phases": ["Liquid"], "ref": {"title": "Preliminary study of new electrolytes based on [MPPyr][TFSI] for lithium ion batteries", "full": "Garca-Garabal, S.; Domnguez-Prez, M.; Portela, D.; Varela, L. M.; Cabeza, O. (2022) J. Mol. Liq. 363, 119758."}, "constr": []}