{"components": [{"sample": [["Source:", "commercial source"], ["Purification:", "stated by supplier"], ["Purity:", "99 % (basis not specified)"], ["Purity analysis:", "dried with chemical reagent"]], "mw": "226.03", "idout": "AArYBF", "name": "1-butyl-3-methylimidazolium tetrafluoroborate", "formula": "C<SUB>8</SUB>H<SUB>15</SUB>BF<SUB>4</SUB>N<SUB>2</SUB>"}], "title": "Refraction, surface tension, and speed of sound: Refractive index (Na D-line)", "dhead": [["Temperature, K", null], ["Pressure, kPa", null], ["Refractive index (Na D-line)", "Liquid"]], "solvent": null, "data": [[["298.2"], ["101.325"], ["1.4205", "0.0008"]]], "footer": "", "expmeth": "Standard Abbe refractometry", "ref": {"full": "Ros, A. P. d. l.; Fernndez, F. J. H.; Gmez, D.; Rubio, M.; Vllora, G. (2012) Sep. Sci. Technol. 47(2), 300-311.", "title": "(Liquid +Liquid) Equilibrium for Ternary Systems Containing of an Ionic Liquid, n-Hexane and an Organic Compound Involved in the Kinetic Resolution ofrac-2-Pentanol"}, "constr": [], "phases": ["Liquid"]}