{"ref": {"full": "Jin, H.; O Hare, B.; Dong, J.; Arzhantsev, S.; Baker, G. A.; Wishart, J. F.; Benesi, A. J.; Maroncelli, M. (2008) J. Phys. Chem. B 112, 81-92.", "title": "Physical Properties of Ionic Liquids Consisting of the 1-Butyl-3-Methylimidazolium Cation with Various Anions and the Bis(trifluoromethylsulfonyl)imide Anion with Various Cations"}, "constr": [], "phases": ["Liquid"], "title": "Refraction, surface tension, and speed of sound: Refractive index (Na D-line)", "components": [{"sample": [["Source:", "commercial source"], ["Initial purification:", "stated by supplier"], ["Initial purity:", "99.5 mass %"], ["Final purification:", "Karl Fischer titration"], ["Final purity:", "0.0027 water mass %(dried by oven heating)"]], "formula": "C<SUB>12</SUB>H<SUB>15</SUB>F<SUB>9</SUB>N<SUB>2</SUB>O<SUB>6</SUB>S<SUB>3</SUB>", "name": "1-butyl-3-methylimidazolium tris[(trifluoromethyl)sulfonyl]methide", "mw": "550.43", "idout": "ACBsjq"}], "dhead": [["Temperature, K", null], ["Pressure, kPa", null], ["Refractive index (Na D-line)", "Liquid"]], "footer": "", "data": [[["298.1"], ["101.325"], ["1.436", "0.002"]]], "solvent": null, "expmeth": "Standard Abbe refractometry"}