{"constr": [], "ref": {"title": "Density and refractive index data of binary and ternary mixtures of imidazolium-based ionic liquids, n-hexane and organic compounds involved in the kinetic resolution of rac-2-pentanol", "full": "Montalban, M. G.; Collado-Gonzalez, M.; Lozano-Perez, A. A.; Banos, F. G. D.; Villora, G. (2018) Data in Brief 19, 134-144."}, "phases": ["Liquid"], "components": [{"sample": [["Source:", "commercial source"], ["Initial purification:", "stated by supplier"], ["Initial purity:", "99 mass %"], ["Final purification:", "Karl Fischer titration"], ["Final purity:", "0.1 water mass %(dried in a desiccator;dried by vacuum heating)"]], "formula": "C<SUB>9</SUB>H<SUB>18</SUB>N<SUB>2</SUB>O<SUB>4</SUB>S", "name": "1-butyl-3-methylimidazolium methyl sulfate", "idout": "AAwHNg", "mw": "250.31"}, {"idout": "AAeWCz", "mw": "158.24", "formula": "C<SUB>9</SUB>H<SUB>18</SUB>O<SUB>2</SUB>", "name": "1-methylbutyl butanoate", "sample": [["Source:", "commercial source"], ["Initial purification:", "stated by supplier"], ["Initial purity:", "99 mass %"], ["Final purification:", "Karl Fischer titration"], ["Final purity:", "0.1 water mass %(dried in a desiccator;dried by vacuum heating)"]]}], "title": "Refraction, surface tension, and speed of sound: Refractive index (Na D-line)", "dhead": [["Mole fraction of 1-butyl-3-methylimidazolium methyl sulfate", "Liquid"], ["Temperature, K", null], ["Pressure, kPa", null], ["Refractive index (Na D-line)", "Liquid"]], "solvent": null, "data": [[["0.8986"], ["303.15"], ["100"], ["1.47645", "0.00053"]], [["0.9199"], ["303.15"], ["100"], ["1.4766", "0.00053"]], [["0.9426"], ["303.15"], ["100"], ["1.47679", "0.00053"]], [["0.9602"], ["303.15"], ["100"], ["1.47705", "0.00053"]], [["0.98"], ["303.15"], ["100"], ["1.47731", "0.00053"]], [["0.9901"], ["303.15"], ["100"], ["1.4776", "0.00053"]], [["1"], ["303.15"], ["100"], ["1.47808", "0.00053"]]], "footer": "", "expmeth": "Standard Abbe refractometry"}