{"ref": {"full": "Ram, N. M.; Bahadur, I.; Letcher, T. M.; Naidoo, P.; Ramjugernath, D. (2015) J. Solution Chem. 44, 593-605.", "title": "Liquid Liquid Equilibria for Mixtures of Hexadecane and Ethanol with Imidazolium-Based Ionic Liquids"}, "constr": [], "phases": ["Liquid"], "title": "Refraction, surface tension, and speed of sound: Refractive index (Na D-line)", "components": [{"idout": "AAqmVN", "mw": "222.26", "name": "1-ethyl-3-methylimidazolium methyl sulfate", "formula": "C<SUB>7</SUB>H<SUB>14</SUB>N<SUB>2</SUB>O<SUB>4</SUB>S", "sample": [["Source:", "commercial source"], ["Purification:", "stated by supplier"], ["Purity:", "98 mass %"], ["Purity analysis:", "de-gassed by boiling or ultrasonically;dried by vacuum heating"]]}], "dhead": [["Temperature, K", null], ["Pressure, kPa", null], ["Refractive index (Na D-line)", "Liquid"]], "footer": "", "data": [[["298.15"], ["101.325"], ["1.479", "0.0008"]]], "solvent": null, "expmeth": "Standard Abbe refractometry"}