{"expmeth": "Standard Abbe refractometry", "solvent": null, "data": [[["283.15"], ["101.325"], ["1.514", "0.0012"]], [["293.15"], ["101.325"], ["1.511", "0.0011"]], [["303.15"], ["101.325"], ["1.5092", "0.0011"]]], "footer": "", "dhead": [["Temperature, K", null], ["Pressure, kPa", null], ["Refractive index (Na D-line)", "Liquid"]], "components": [{"mw": "177.21", "idout": "AAiEIE", "name": "1-ethyl-3-methylimidazolium dicyanamide", "formula": "C<SUB>8</SUB>H<SUB>11</SUB>N<SUB>5</SUB>", "sample": [["Source:", "commercial source"], ["Initial purification:", "stated by supplier"], ["Initial purity:", "98 mass %"], ["Final purification:", "Karl Fischer titration"], ["Final purity:", "0.1886 water mass %(dried by vacuum heating)"]]}], "title": "Refraction, surface tension, and speed of sound: Refractive index (Na D-line)", "phases": ["Liquid"], "constr": [], "ref": {"title": "Density, Refractive Index, Interfacial Tension, and Viscosity of Ionic Liquids [EMIM][EtSO4], [EMIM][NTf2], [EMIM][N(CN)2], and [OMA][NTf2] in Dependence on Temperature at Atmospheric Pressure", "full": "Froba, A. P.; Kremer, H.; Leipertz, A. (2008) J. Phys. Chem. B 112, 12420-12430."}}